                  Welcome to Q-Chem
     A Quantum Leap Into The Future Of Chemistry

 Y. Shao, L. Fusti-Molnar, Y. Jung, J. Kussmann, C. Ochsenfeld,
 S. T. Brown, A. T. B. Gilbert, L. V. Slipchenko,S. V. Levchenko,
 D. P. O'Neill, R. A. DiStasio Jr., R. C. Lochan, T. Wang,
 G. J. O. Beran, N. A. Besley, J. M. Herbert, C. Y. Lin,
 T. Van Voorhis, S. H. Chien, A. Sodt, R. P. Steele, 
 V. A. Rassolov, P. E. Maslen, P. P. Korambath, R. D. Adamson,
 B. Austin, J. Baker, E. F. C. Byrd, H. Dachsel, R. J. Doerksen,
 A. Dreuw, B. D. Dunietz, A. D. Dutoi, T. R. Furlani,
 S. R. Gwaltney, A. Heyden, S. Hirata, C.-P. Hsu, G. Kedziora,
 R. Z. Khaliullin, P. Klunzinger, A. M. Lee, M. S. Lee, W. Liang,
 I. Lotan, N. Nair, B. Peters, E. I. Proynov, P. A. Pieniazek, 
 Y. M. Rhee, J. Ritchie, E. Rosta, C. D. Sherrill, 
 A. C. Simmonett, J. E. Subotnik, H. L. Woodcock III,
 W. Zhang, A. T. Bell, A. K. Chakraborty, D. M. Chipman,
 F. J. Keil, A. Warshel, W. J. Hehre, H. F. Schaefer III,
 J. Kong, A. I. Krylov, P. M. W. Gill, M. Head-Gordon,

 Additional authors for Version 3.1: 
 Z. Gan, Y. Zhao, N. E. Schultz, D. Truhlar, E. Epifanovsky and M. Oana.

 Additional authors for Version 3.2: 
 R. Baer, B. R. Brooks, D. Casanova, J.-D. Chai, C.-L. Cheng, 
 C. Cramer, D. Crittenden, A. Ghysels, G. Hawkins, E. G. Hohenstein, 
 C. Kelley, W. Kurlancheek, D. Liotard, E. Livshits, P. Manohar, 
 A. Marenich, D. Neuhauser, R. Olson, M. A. Rohrdanz, K. S. Thanthiriwatte, 
 A. J. W. Thom, V. Vanovschi, C. F. Williams, Q. Wu and Z.-Q. You. 

 Additional authors for Version 4.0: 
 A. Aspuru-Guzik, C. Chang, R. G. Edgar, E. Sundstrom, J. Parkhill, K. Lawler,
 M. Gordon, M. Schmidt, N. Shenvi, D. Lambrecht, M. Goldey, R. Olivares-Amaya,
 Y. Bernard, L. Vogt, M. Watson, J. Liu, S. Yeganeh, B. Kaduk, O. Vydrov, X. Xu, 
 I. Kaliman, K. Khistyaev, N. Russ, I.Y. Zhang, W.A. Goddard III, F. Liu, R. King ,
 A. Landau, M. Wormit, A. Dreuw, M. Diedenhofen, A. Klamt, A.W. Lange, D. Ghosh,
 D. Kosenkov, T. Kus, A. Landau, D. Zuev, J. Deng, S.P. Mao, Y.C. Su, D. Small,
 L. D. Jacobson

 Additional authors for Version 4.1: 
 A. Laurent, H. Ji, M. W.D. Hason-Heine, N. Mardirossian, N. Sergueev, P. Zimmerman,
 P. Horn, R. Peverati, S. Sharada, P. Zimmerman, P. Horn, X. Feng 

 
 Q-Chem, Version 4.1, Q-Chem, Inc., Pittsburgh, PA (2013).


 Intel X86 EM64T Linux Version 4.1.0.1 

 Q-chem begins on Sun Dec 22 16:21:17 2013  

Host: 
0

     Scratch files written to /home/eric/scratch/qchem/qchem18984//
 Nov1713 |home|eric|opt|apps|qchem|4.1-release.O2.omp|libmdc|qstr_info.C -1

theFileMan(): MAXOPENFILES=974 MAX_SUB_FILE_NUM=16
Maximum size of a physical file is 2.0 GB, maximum size of a tmp-file is 32.0 GB

Finally everything over in PARseQInput

--------------------------------------------------------------
User input:
--------------------------------------------------------------
$rem
jobtype opt
exchange b3lyp
basis 6-31g
$end

$molecule
0 1
C          2.05639       -0.16543        0.39727
C          0.68890        2.02854       -0.64816
C          2.74071        1.02327        0.12533
C          2.05734        2.11782       -0.40016
C         -3.59396        1.03209        0.04589
C          0.67738       -0.27507        0.15097
C          0.00274        0.84234       -0.35887
O          0.63293       -2.54526        0.93360
O         -1.76452        1.43252        1.56571
O         -1.24894       -1.68411        0.12975
C          0.05278       -1.58881        0.44958
C         -2.15199        1.12841        0.44513
O         -1.36167        0.82832       -0.65825
H         -1.47652       -2.60111        0.39232
H          2.60948       -1.01173        0.80284
H          0.15708        2.88266       -1.05823
H          3.80777        1.09126        0.32364
H          2.59044        3.04081       -0.61405
H         -3.81640        0.02049       -0.30287
H         -4.22480        1.24591        0.91440
H         -3.81296        1.76576       -0.73332
$end
--------------------------------------------------------------
 ----------------------------------------------------
       Standard Nuclear Orientation (Angstroms)
    I     Atom         X            Y            Z
 ----------------------------------------------------
    1      C       2.265978    -0.404854     0.238412
    2      C       0.840477     1.894169    -0.439008
    3      C       2.904187     0.839278     0.229636
    4      C       2.192037     1.986945    -0.112237
    5      C      -3.415479     0.619877    -0.155227
    6      C       0.904755    -0.518331    -0.091053
    7      C       0.199611     0.649106    -0.412833
    8      O       0.935266    -2.896166     0.245430
    9      O      -1.669966     0.792800     1.500166
   10      O      -0.950834    -1.970318    -0.471943
   11      C       0.330941    -1.887908    -0.076836
   12      C      -1.996990     0.693515     0.324789
   13      O      -1.149379     0.640111    -0.775580
   14      H      -1.145561    -2.928625    -0.398769
   15      H       2.841302    -1.291134     0.503229
   16      H       0.286196     2.789795    -0.705725
   17      H       3.957962     0.909085     0.488967
   18      H       2.689441     2.953566    -0.121650
   19      H      -3.575855    -0.314339    -0.699257
   20      H      -4.090347     0.639614     0.706255
   21      H      -3.636924     1.479826    -0.791507
 ----------------------------------------------------
 Molecular Point Group                 C1    NOp =  1
 Largest Abelian Subgroup              C1    NOp =  1
 Nuclear Repulsion Energy =   782.6611652780 hartrees
 There are       47 alpha and       47 beta electrons
 Requested basis set is 6-31G
 There are 55 shells and 133 basis functions

Total QAlloc Memory Limit   2000 MB
Mega-Array Size        61 MB
MEM_STATIC part        62 MB
 A cutoff of  1.0D-11 yielded   1253 shell pairs
 There are      8267 function pairs
 Smallest overlap matrix eigenvalue = 5.37E-04

  Scale SEOQF with 1.000000e-01/1.000000e-01/1.000000e-01

 Standard Electronic Orientation quadrupole field applied
 Nucleus-field energy     =     0.0000000242 hartrees
 Guess from superposition of atomic densities
 Warning:  Energy on first SCF cycle will be non-variational
 A restricted hybrid HF-DFT SCF calculation will be
 performed using Pulay DIIS extrapolation
 Exchange:     0.2000 Hartree-Fock + 0.0800 Slater + 0.7200 Becke88
 Correlation:  0.8100 LYP + 0.1900 VWN1RPA
 Using SG-1 standard quadrature grid
 SCF converges when DIIS error is below 1.0E-08
 ---------------------------------------
  Cycle       Energy         DIIS Error
 ---------------------------------------
    1    -651.4222336260      8.75E-02
    2    -648.1809494292      1.24E-02
    3    -647.3797212058      2.47E-02
    4    -648.4238689756      5.71E-03
    5    -648.4835469651      1.33E-03
    6    -648.4860593832      5.03E-04
    7    -648.4865671236      1.26E-04
    8    -648.4865987325      4.48E-05
    9    -648.4866024419      1.75E-05
   10    -648.4866029484      5.92E-06
   11    -648.4866030134      1.39E-06
   12    -648.4866030173      6.71E-07
   13    -648.4866030184      1.13E-07
   14    -648.4866030186      4.70E-08
   15    -648.4866030194      7.80E-08
   16    -648.4866030191      1.27E-08
   17    -648.4866030184      1.70E-09 Convergence criterion met
 ---------------------------------------
 SCF time:  CPU 22.09 s  wall 22.31 s
 SCF   energy in the final basis set = -648.4866030184
 Total energy in the final basis set = -648.4866030184
 Analysis of SCF Wavefunction
 
 --------------------------------------------------------------
                    Orbital Energies (a.u.)
 --------------------------------------------------------------
 
 Alpha MOs
 -- Occupied --
-19.208 -19.205 -19.154 -19.150 -10.339 -10.336 -10.273 -10.225
-10.212 -10.211 -10.209 -10.205 -10.193  -1.146  -1.130  -1.050
 -1.041  -0.884  -0.794  -0.785  -0.748  -0.684  -0.649  -0.614
 -0.591  -0.533  -0.513  -0.498  -0.493  -0.480  -0.476  -0.466
 -0.461  -0.452  -0.414  -0.410  -0.407  -0.396  -0.382  -0.372
 -0.369  -0.327  -0.316  -0.291  -0.284  -0.275  -0.265
 -- Virtual --
 -0.060  -0.020  -0.009   0.043   0.064   0.085   0.110   0.132
  0.139   0.151   0.160   0.168   0.175   0.186   0.218   0.234
  0.243   0.261   0.285   0.317   0.320   0.346   0.362   0.394
  0.491   0.499   0.508   0.532   0.539   0.550   0.565   0.577
  0.583   0.589   0.601   0.612   0.621   0.629   0.633   0.645
  0.650   0.662   0.682   0.690   0.733   0.758   0.782   0.802
  0.814   0.823   0.849   0.854   0.878   0.888   0.902   0.924
  0.931   0.947   0.952   0.962   0.979   0.979   0.996   1.022
  1.035   1.050   1.082   1.110   1.121   1.131   1.174   1.203
  1.210   1.248   1.288   1.328   1.412   1.440   1.461   1.486
  1.573   1.778   1.818   1.911   2.084   2.117
 --------------------------------------------------------------
 
          Ground-State Mulliken Net Atomic Charges

     Atom                 Charge (a.u.)
  ----------------------------------------
      1 C                    -0.158433
      2 C                    -0.098974
      3 C                    -0.118636
      4 C                    -0.116758
      5 C                    -0.457399
      6 C                     0.127709
      7 C                     0.226182
      8 O                    -0.395081
      9 O                    -0.391127
     10 O                    -0.536981
     11 C                     0.399637
     12 C                     0.501710
     13 O                    -0.512341
     14 H                     0.386429
     15 H                     0.178300
     16 H                     0.146851
     17 H                     0.140405
     18 H                     0.144389
     19 H                     0.186574
     20 H                     0.172381
     21 H                     0.175164
  ----------------------------------------
  Sum of atomic charges =    -0.000000

 -----------------------------------------------------------------
                    Cartesian Multipole Moments
 -----------------------------------------------------------------
    Charge (ESU x 10^10)
                 0.0000
    Dipole Moment (Debye)
         X      -0.3908      Y       1.5643      Z      -1.7947
       Tot       2.4126
    Quadrupole Moments (Debye-Ang)
        XX     -61.0698     XY       8.1435     YY     -70.1567
        XZ       3.1487     YZ      -0.5243     ZZ     -81.1655
    Octapole Moments (Debye-Ang^2)
       XXX     -18.5328    XXY       5.8815    XYY     -24.6862
       YYY      11.1531    XXZ       1.0972    XYZ       3.7003
       YYZ     -12.2424    XZZ       0.4053    YZZ     -11.3914
       ZZZ      -4.7417
    Hexadecapole Moments (Debye-Ang^3)
      XXXX   -1465.2601   XXXY       4.3919   XXYY    -414.7877
      XYYY     102.0150   YYYY   -1007.4579   XXXZ      29.2087
      XXYZ      -1.2527   XYYZ       2.8055   YYYZ      21.7855
      XXZZ    -331.0023   XYZZ      -0.6150   YYZZ    -210.2931
      XZZZ       9.1383   YZZZ      -1.3074   ZZZZ    -218.0768
 -----------------------------------------------------------------
 Calculating analytic gradient of the SCF energy
 Gradient of Coulomb and Exchange Energy
            1           2           3           4           5           6
    1 -10.9820635   0.6868966 -13.1128390  -8.1380707   9.5797821  -0.3162649
    2   5.1286018 -12.7782617  -2.2168294 -11.6647422  -1.4331028   7.0552377
    3  -2.8287030   3.5556128  -2.6291997   0.2347399   0.8265208   0.3501918
            7           8           9          10          11          12
    1   1.5768145 -11.4775235   0.9434366  12.7510741   2.7525443   8.0099917
    2  -2.4556866  25.2019867  -4.8809231   4.1896006  -0.3705604  -1.1857505
    3   2.0552132  -6.1142197 -27.1313516   6.2233780   2.0153698   7.6817745
           13          14          15          16          17          18
    1   8.6094527   1.6436587  -4.0860586   2.4396261  -5.6218095  -2.8140861
    2  -4.3169271   6.2997108   4.6029269  -5.6644020  -0.5250616  -5.0735216
    3  15.4760876  -0.2603844  -1.5932083   1.6893719  -1.3364396   0.0540828
           19          20          21
    1   1.8872462   3.7306664   1.9375256
    2   4.2062392  -0.1378891  -3.9806456
    3   2.3932565  -3.3480407   2.6859475
 Gradient of SCF Energy
            1           2           3           4           5           6
    1  -0.0090454   0.0003830  -0.0040076  -0.0009212   0.0054996  -0.0023089
    2  -0.0044860   0.0004528   0.0067583  -0.0043576   0.0002588   0.0082083
    3  -0.0015003  -0.0008202  -0.0023149   0.0008266  -0.0076300  -0.0014508
            7           8           9          10          11          12
    1  -0.0231087  -0.0219856  -0.0142398   0.0234191  -0.0118763   0.0396903
    2  -0.0119802   0.0270446   0.0000779   0.0075878  -0.0386595   0.0025465
    3   0.0105472  -0.0102121  -0.0000106   0.0047867   0.0012028   0.0027507
           13          14          15          16          17          18
    1  -0.0034628   0.0124904   0.0061404   0.0019217   0.0019538   0.0012683
    2  -0.0012905   0.0036061  -0.0005845   0.0037535   0.0007309   0.0010247
    3  -0.0117601   0.0034484   0.0018058  -0.0001825   0.0004284   0.0003132
           19          20          21
    1  -0.0006422  -0.0020925   0.0009242
    2  -0.0019494  -0.0006506   0.0019081
    3   0.0042762   0.0009802   0.0045154
 Max gradient component =       3.969E-02
 RMS gradient           =       1.052E-02
 Gradient time:  CPU 5.30 s  wall 5.32 s
 Geometry Optimization Parameters
   NAtoms,    NIC,     NZ,  NCons,   NDum,   NFix, NCnnct, MaxDiis
       21     135       0       0       0       0       0       0


** GEOMETRY OPTIMIZATION IN DELOCALIZED INTERNAL COORDINATES **
   Searching for a Minimum

   Optimization Cycle:   1

                       Coordinates (Angstroms)
     ATOM              X           Y           Z
      1  C         2.265978   -0.404854    0.238412
      2  C         0.840477    1.894169   -0.439008
      3  C         2.904187    0.839278    0.229636
      4  C         2.192037    1.986945   -0.112237
      5  C        -3.415479    0.619877   -0.155227
      6  C         0.904755   -0.518331   -0.091053
      7  C         0.199611    0.649106   -0.412833
      8  O         0.935266   -2.896166    0.245430
      9  O        -1.669966    0.792800    1.500166
     10  O        -0.950834   -1.970318   -0.471943
     11  C         0.330941   -1.887908   -0.076836
     12  C        -1.996990    0.693515    0.324789
     13  O        -1.149379    0.640111   -0.775580
     14  H        -1.145561   -2.928625   -0.398769
     15  H         2.841302   -1.291134    0.503229
     16  H         0.286196    2.789795   -0.705725
     17  H         3.957962    0.909085    0.488967
     18  H         2.689441    2.953566   -0.121650
     19  H        -3.575855   -0.314339   -0.699257
     20  H        -4.090347    0.639614    0.706255
     21  H        -3.636924    1.479826   -0.791507
   Point Group: c1    Number of degrees of freedom:    57


   Energy is   -648.486603018


 Attempting to Generate Delocalized Internal Coordinates
 GETINT wrote B to file, NVib is           57
 calling HSSCONV
 HCONV 3*NATOMS:           63
 wrote HINT to file
  writing hessian 

 57 Hessian modes will be used to form the next step
  Hessian Eigenvalues:
     0.009269    0.011164    0.011290    0.014852    0.016050    0.016968
     0.018607    0.021225    0.022064    0.022215    0.022488    0.022776
     0.022957    0.023077    0.023095    0.023277    0.074958    0.076717
     0.159995    0.159999    0.160000    0.160000    0.160000    0.160000
     0.160000    0.160000    0.219998    0.224863    0.244761    0.249747
     0.249990    0.249993    0.249995    0.250000    0.250000    0.250000
     0.324492    0.340041    0.342948    0.344787    0.345334    0.348913
     0.351080    0.351462    0.352187    0.415073    0.419284    0.451957
     0.457286    0.460689    0.461315    0.465815    0.473183    0.512637
     0.563577    0.936081    0.958853

 Minimum Search - Taking Simple RFO Step
 Searching for Lamda that Minimizes Along All modes
 Value Taken    Lamda =  -0.01882287
 Step Taken.  Stepsize is  0.290606

                             Maximum     Tolerance    Cnvgd?
         Gradient           0.035681      0.000300      NO
         Displacement       0.145858      0.001200      NO
         Energy change     *********      0.000001      NO


 New Cartesian Coordinates Obtained by Inverse Iteration

 Displacement from previous Coordinates is:  1.232564
 ----------------------------------------------------
       Standard Nuclear Orientation (Angstroms)
    I     Atom         X            Y            Z
 ----------------------------------------------------
    1      C       2.330919    -0.401433     0.167173
    2      C       0.893381     1.925407    -0.365684
    3      C       2.988854     0.827709     0.150584
    4      C       2.266885     1.996119    -0.118817
    5      C      -3.504093     0.608609    -0.237714
    6      C       0.949198    -0.494131    -0.078994
    7      C       0.238056     0.693031    -0.339574
    8      O       1.041097    -2.871252     0.240923
    9      O      -1.834353     0.639395     1.549451
   10      O      -0.976316    -1.958865    -0.282713
   11      C       0.374432    -1.863106    -0.028685
   12      C      -2.121510     0.647133     0.357406
   13      O      -1.148805     0.695755    -0.655103
   14      H      -1.272170    -2.897509    -0.217138
   15      H       2.878578    -1.312700     0.375199
   16      H       0.320581     2.819067    -0.582736
   17      H       4.054558     0.872672     0.346721
   18      H       2.769371     2.957582    -0.137153
   19      H      -3.600168    -0.264647    -0.888728
   20      H      -4.242723     0.549039     0.563734
   21      H      -3.688953     1.508141    -0.832890
 ----------------------------------------------------
 Molecular Point Group                 C1    NOp =  1
 Largest Abelian Subgroup              C1    NOp =  1
 Nuclear Repulsion Energy =   774.2342943278 hartrees
 There are       47 alpha and       47 beta electrons
 Applying Cartesian multipole field
    Component          Value
    ---------          -----
     (2,0,0)        1.00000E-11
     (0,2,0)        2.00000E-11
     (0,0,2)       -3.00000E-11
 Nucleus-field energy     =     0.0000000251 hartrees
 Requested basis set is 6-31G
 There are 55 shells and 133 basis functions
 A cutoff of  1.0D-11 yielded   1240 shell pairs
 There are      8194 function pairs
 Smallest overlap matrix eigenvalue = 5.49E-04
 Guess MOs from SCF MO coefficient file
Reading MOs from coefficient file
Reading MOs from coefficient file
 A restricted hybrid HF-DFT SCF calculation will be
 performed using Pulay DIIS extrapolation
 Exchange:     0.2000 Hartree-Fock + 0.0800 Slater + 0.7200 Becke88
 Correlation:  0.8100 LYP + 0.1900 VWN1RPA
 Using SG-1 standard quadrature grid
 SCF converges when DIIS error is below 1.0E-08
Geometry optimization detected.  Setting ReadMinima to 0
Setting SaveMinima to 0
 ---------------------------------------
  Cycle       Energy         DIIS Error
 ---------------------------------------
    1    -648.4216726313      5.60E-03
    2    -648.4935819054      6.74E-04
    3    -648.4924282893      1.14E-03
    4    -648.4947688759      1.83E-04
    5    -648.4947995679      1.33E-04
    6    -648.4948306952      3.33E-05
    7    -648.4948327745      8.19E-06
    8    -648.4948329078      4.15E-06
    9    -648.4948329465      1.16E-06
   10    -648.4948329488      4.98E-07
   11    -648.4948329497      2.25E-07
   12    -648.4948329490      5.20E-08
   13    -648.4948329483      1.65E-08
   14    -648.4948329497      2.25E-08
   15    -648.4948329492      4.50E-09 Convergence criterion met
 ---------------------------------------
 SCF time:  CPU 18.76 s  wall 19.15 s
 SCF   energy in the final basis set = -648.4948329492
 Total energy in the final basis set = -648.4948329492
 Analysis of SCF Wavefunction
 
 --------------------------------------------------------------
                    Orbital Energies (a.u.)
 --------------------------------------------------------------
 
 Alpha MOs
 -- Occupied --
-19.201 -19.198 -19.150 -19.150 -10.341 -10.337 -10.276 -10.226
-10.214 -10.210 -10.209 -10.206 -10.200  -1.121  -1.111  -1.037
 -1.030  -0.882  -0.791  -0.784  -0.751  -0.682  -0.648  -0.613
 -0.591  -0.533  -0.508  -0.498  -0.485  -0.472  -0.470  -0.460
 -0.453  -0.451  -0.417  -0.408  -0.402  -0.394  -0.383  -0.369
 -0.363  -0.323  -0.310  -0.287  -0.284  -0.274  -0.262
 -- Virtual --
 -0.063  -0.019  -0.008   0.039   0.057   0.082   0.108   0.126
  0.140   0.150   0.159   0.166   0.172   0.183   0.215   0.227
  0.241   0.270   0.281   0.311   0.318   0.338   0.357   0.390
  0.493   0.497   0.508   0.533   0.538   0.545   0.563   0.573
  0.580   0.586   0.599   0.615   0.619   0.628   0.634   0.643
  0.647   0.660   0.675   0.686   0.715   0.750   0.777   0.808
  0.817   0.828   0.854   0.859   0.875   0.883   0.903   0.921
  0.931   0.946   0.950   0.957   0.977   0.983   0.991   1.028
  1.037   1.048   1.090   1.114   1.117   1.148   1.161   1.205
  1.210   1.257   1.288   1.325   1.423   1.452   1.477   1.488
  1.560   1.782   1.822   1.900   2.048   2.105
 --------------------------------------------------------------
 
          Ground-State Mulliken Net Atomic Charges

     Atom                 Charge (a.u.)
  ----------------------------------------
      1 C                    -0.158938
      2 C                    -0.111115
      3 C                    -0.116376
      4 C                    -0.118529
      5 C                    -0.457291
      6 C                     0.104995
      7 C                     0.262033
      8 O                    -0.408212
      9 O                    -0.396849
     10 O                    -0.564873
     11 C                     0.440133
     12 C                     0.524236
     13 O                    -0.548409
     14 H                     0.391407
     15 H                     0.180389
     16 H                     0.147703
     17 H                     0.141577
     18 H                     0.144362
     19 H                     0.188727
     20 H                     0.176221
     21 H                     0.178810
  ----------------------------------------
  Sum of atomic charges =    -0.000000

 -----------------------------------------------------------------
                    Cartesian Multipole Moments
 -----------------------------------------------------------------
    Charge (ESU x 10^10)
                -0.0000
    Dipole Moment (Debye)
         X      -0.6558      Y       1.6807      Z      -1.9385
       Tot       2.6481
    Quadrupole Moments (Debye-Ang)
        XX     -59.6447     XY       8.7856     YY     -69.8505
        XZ       3.8482     YZ      -0.3880     ZZ     -81.3132
    Octapole Moments (Debye-Ang^2)
       XXX     -24.6730    XXY       6.5752    XYY     -27.9787
       YYY      11.0113    XXZ      -5.0144    XYZ       3.2862
       YYZ     -10.5001    XZZ      -0.0447    YZZ     -10.9414
       ZZZ     -10.9698
    Hexadecapole Moments (Debye-Ang^3)
      XXXX   -1542.1189   XXXY       4.4561   XXYY    -429.0025
      XYYY     107.5123   YYYY    -994.0008   XXXZ      42.9962
      XXYZ       0.9356   XYYZ       3.4762   YYYZ      24.8762
      XXZZ    -353.3370   XYZZ      -2.0475   YYZZ    -207.2504
      XZZZ      25.6184   YZZZ       9.1211   ZZZZ    -208.9461
 -----------------------------------------------------------------
 Calculating analytic gradient of the SCF energy
 Gradient of Coulomb and Exchange Energy
            1           2           3           4           5           6
    1 -10.9644287   0.3937898 -13.1970712  -8.0793544   9.4746518  -0.4012583
    2   4.9316590 -12.8623815  -2.1538331 -11.3995826  -1.4042819   6.7154175
    3  -1.9925404   2.6184232  -1.9150143   0.2841886   1.0322007   0.4859709
            7           8           9          10          11          12
    1   1.4022345 -12.3303032   1.2808924  12.0577498   3.3256503   9.4698777
    2  -2.7521124  24.4923603  -2.7279043   4.9312650  -0.4548247  -1.8544298
    3   1.7802532  -4.9520245 -26.9945386   4.2055138   1.8677717   8.7396300
           13          14          15          16          17          18
    1   7.4335154   2.5906015  -3.8792912   2.6476723  -5.6872873  -2.8224424
    2  -5.2608850   6.0060661   4.7943770  -5.5531859  -0.3740976  -5.0438877
    3  13.1245327  -0.1793806  -1.2273806   1.4007432  -1.0118527   0.1108701
           19          20          21
    1   1.5372747   3.9748140   1.7727126
    2   3.8103233   0.1557106  -3.9957722
    3   3.0584013  -3.0815417   2.6457738
 Gradient of SCF Energy
            1           2           3           4           5           6
    1  -0.0033828   0.0005286   0.0006061   0.0001240  -0.0028137   0.0053558
    2  -0.0022781  -0.0007759   0.0009083   0.0003103  -0.0001497   0.0036333
    3  -0.0002274   0.0000322  -0.0001831   0.0006496  -0.0021335   0.0003747
            7           8           9          10          11          12
    1   0.0050673  -0.0003639  -0.0000317   0.0028026  -0.0003102   0.0001351
    2  -0.0001825   0.0026387  -0.0004592   0.0006073  -0.0011954   0.0025906
    3  -0.0000816   0.0010697   0.0002348   0.0011031  -0.0030581  -0.0009874
           13          14          15          16          17          18
    1  -0.0034696  -0.0042935   0.0014257   0.0006770   0.0002105   0.0003642
    2  -0.0029112  -0.0037212   0.0008797   0.0003871  -0.0001311  -0.0000549
    3   0.0011234  -0.0006430   0.0003637  -0.0002427   0.0000861   0.0000238
           19          20          21
    1  -0.0007786  -0.0013304  -0.0005224
    2  -0.0005407  -0.0002052   0.0006498
    3   0.0013103  -0.0001950   0.0013804
 Max gradient component =       5.356E-03
 RMS gradient           =       1.788E-03
 Gradient time:  CPU 5.22 s  wall 5.23 s
 Geometry Optimization Parameters
   NAtoms,    NIC,     NZ,  NCons,   NDum,   NFix, NCnnct, MaxDiis
       21     135       0       0       0       0       0       0

 Cartesian Hessian Update
 Hessian Updated using BFGS Update


** GEOMETRY OPTIMIZATION IN DELOCALIZED INTERNAL COORDINATES **
   Searching for a Minimum

   Optimization Cycle:   2

                       Coordinates (Angstroms)
     ATOM              X           Y           Z
      1  C         2.330919   -0.401433    0.167173
      2  C         0.893381    1.925407   -0.365684
      3  C         2.988854    0.827709    0.150584
      4  C         2.266885    1.996119   -0.118817
      5  C        -3.504093    0.608609   -0.237714
      6  C         0.949198   -0.494131   -0.078994
      7  C         0.238056    0.693031   -0.339574
      8  O         1.041097   -2.871252    0.240923
      9  O        -1.834353    0.639395    1.549451
     10  O        -0.976316   -1.958865   -0.282713
     11  C         0.374432   -1.863106   -0.028685
     12  C        -2.121510    0.647133    0.357406
     13  O        -1.148805    0.695755   -0.655103
     14  H        -1.272170   -2.897509   -0.217138
     15  H         2.878578   -1.312700    0.375199
     16  H         0.320581    2.819067   -0.582736
     17  H         4.054558    0.872672    0.346721
     18  H         2.769371    2.957582   -0.137153
     19  H        -3.600168   -0.264647   -0.888728
     20  H        -4.242723    0.549039    0.563734
     21  H        -3.688953    1.508141   -0.832890
   Point Group: c1    Number of degrees of freedom:    57


   Energy is   -648.494832949

 GETINT wrote B to file, NVib is           57
 Hessian Updated using BFGS Update

 54 Hessian modes will be used to form the next step
  Hessian Eigenvalues:
     0.009269    0.011169    0.011295    0.014931    0.015951    0.016996
     0.018628    0.021219    0.022023    0.022212    0.022457    0.022778
     0.022957    0.023078    0.023096    0.023277    0.074434    0.076717
     0.157125    0.159996    0.160000    0.160000    0.160000    0.169796
     0.219967    0.225004    0.240760    0.246293    0.249755    0.249990
     0.249993    0.249997    0.278124    0.329173    0.340832    0.342817
     0.344782    0.345325    0.348922    0.351034    0.351447    0.352190
     0.415150    0.419311    0.451960    0.456316    0.460085    0.465630
     0.469885    0.487791    0.518082    0.569915    0.935970    0.943428

 Minimum Search - Taking Simple RFO Step
 Searching for Lamda that Minimizes Along All modes
 Value Taken    Lamda =  -0.00142666
 Step Taken.  Stepsize is  0.202248

                             Maximum     Tolerance    Cnvgd?
         Gradient           0.008819      0.000300      NO
         Displacement       0.068388      0.001200      NO
         Energy change     -0.008230      0.000001      NO


 New Cartesian Coordinates Obtained by Inverse Iteration

 Displacement from previous Coordinates is:  0.628731
 ----------------------------------------------------
       Standard Nuclear Orientation (Angstroms)
    I     Atom         X            Y            Z
 ----------------------------------------------------
    1      C       2.318201    -0.397834     0.153433
    2      C       0.906885     1.954627    -0.346935
    3      C       2.994415     0.820431     0.124418
    4      C       2.285578     2.002140    -0.127061
    5      C      -3.473132     0.558392    -0.263853
    6      C       0.928997    -0.468998    -0.063228
    7      C       0.238617     0.731163    -0.319270
    8      O       0.985702    -2.857262     0.208514
    9      O      -1.830152     0.527921     1.548474
   10      O      -1.030870    -1.880768    -0.196964
   11      C       0.329912    -1.822710     0.013087
   12      C      -2.109378     0.599245     0.356665
   13      O      -1.138372     0.749984    -0.643674
   14      H      -1.323322    -2.815961    -0.130061
   15      H       2.844873    -1.323565     0.349402
   16      H       0.338514     2.853393    -0.553434
   17      H       4.064027     0.848815     0.298651
   18      H       2.800720     2.956419    -0.152118
   19      H      -3.524391    -0.272245    -0.973770
   20      H      -4.220682     0.430116     0.519380
   21      H      -3.669324     1.482712    -0.816393
 ----------------------------------------------------
 Molecular Point Group                 C1    NOp =  1
 Largest Abelian Subgroup              C1    NOp =  1
 Nuclear Repulsion Energy =   778.0943973240 hartrees
 There are       47 alpha and       47 beta electrons
 Applying Cartesian multipole field
    Component          Value
    ---------          -----
     (2,0,0)        1.00000E-11
     (0,2,0)        2.00000E-11
     (0,0,2)       -3.00000E-11
 Nucleus-field energy     =     0.0000000248 hartrees
 Requested basis set is 6-31G
 There are 55 shells and 133 basis functions
 A cutoff of  1.0D-11 yielded   1243 shell pairs
 There are      8200 function pairs
 Smallest overlap matrix eigenvalue = 5.50E-04
 Guess MOs from SCF MO coefficient file
Reading MOs from coefficient file
Reading MOs from coefficient file
 A restricted hybrid HF-DFT SCF calculation will be
 performed using Pulay DIIS extrapolation
 Exchange:     0.2000 Hartree-Fock + 0.0800 Slater + 0.7200 Becke88
 Correlation:  0.8100 LYP + 0.1900 VWN1RPA
 Using SG-1 standard quadrature grid
 SCF converges when DIIS error is below 1.0E-08
Geometry optimization detected.  Setting ReadMinima to 0
Setting SaveMinima to 0
 ---------------------------------------
  Cycle       Energy         DIIS Error
 ---------------------------------------
    1    -648.4923713509      2.90E-03
    2    -648.4951860584      2.23E-04
    3    -648.4951521954      3.20E-04
    4    -648.4953709430      6.59E-05
    5    -648.4953769478      4.13E-05
    6    -648.4953796707      1.82E-05
    7    -648.4953802567      3.77E-06
    8    -648.4953802832      1.79E-06
    9    -648.4953802893      6.19E-07
   10    -648.4953802904      2.43E-07
   11    -648.4953802900      8.74E-08
   12    -648.4953802896      1.97E-08
   13    -648.4953802898      6.20E-09 Convergence criterion met
 ---------------------------------------
 SCF time:  CPU 16.69 s  wall 16.70 s
 SCF   energy in the final basis set = -648.4953802898
 Total energy in the final basis set = -648.4953802898
 Analysis of SCF Wavefunction
 
 --------------------------------------------------------------
                    Orbital Energies (a.u.)
 --------------------------------------------------------------
 
 Alpha MOs
 -- Occupied --
-19.202 -19.198 -19.151 -19.150 -10.342 -10.336 -10.276 -10.226
-10.214 -10.210 -10.208 -10.206 -10.198  -1.123  -1.113  -1.038
 -1.030  -0.883  -0.792  -0.785  -0.751  -0.683  -0.648  -0.613
 -0.591  -0.533  -0.510  -0.498  -0.486  -0.473  -0.470  -0.460
 -0.454  -0.451  -0.418  -0.408  -0.404  -0.393  -0.382  -0.368
 -0.364  -0.325  -0.311  -0.288  -0.284  -0.274  -0.262
 -- Virtual --
 -0.064  -0.019  -0.006   0.039   0.059   0.084   0.110   0.128
  0.141   0.150   0.160   0.166   0.173   0.183   0.215   0.229
  0.241   0.270   0.281   0.312   0.318   0.338   0.357   0.392
  0.492   0.500   0.514   0.533   0.536   0.543   0.563   0.574
  0.582   0.589   0.599   0.617   0.620   0.628   0.634   0.643
  0.649   0.662   0.674   0.686   0.719   0.748   0.779   0.810
  0.817   0.828   0.855   0.859   0.868   0.882   0.905   0.922
  0.931   0.947   0.952   0.957   0.980   0.986   1.009   1.030
  1.036   1.053   1.090   1.111   1.119   1.158   1.161   1.204
  1.208   1.262   1.291   1.324   1.430   1.454   1.487   1.515
  1.578   1.780   1.829   1.910   2.060   2.103
 --------------------------------------------------------------
 
          Ground-State Mulliken Net Atomic Charges

     Atom                 Charge (a.u.)
  ----------------------------------------
      1 C                    -0.160147
      2 C                    -0.110199
      3 C                    -0.115743
      4 C                    -0.120425
      5 C                    -0.457866
      6 C                     0.112198
      7 C                     0.257005
      8 O                    -0.409979
      9 O                    -0.399963
     10 O                    -0.565841
     11 C                     0.440182
     12 C                     0.533572
     13 O                    -0.550238
     14 H                     0.391647
     15 H                     0.180033
     16 H                     0.148479
     17 H                     0.141375
     18 H                     0.144110
     19 H                     0.188246
     20 H                     0.174779
     21 H                     0.178774
  ----------------------------------------
  Sum of atomic charges =    -0.000000

 -----------------------------------------------------------------
                    Cartesian Multipole Moments
 -----------------------------------------------------------------
    Charge (ESU x 10^10)
                -0.0000
    Dipole Moment (Debye)
         X      -0.5979      Y       1.7414      Z      -1.8869
       Tot       2.6363
    Quadrupole Moments (Debye-Ang)
        XX     -59.8531     XY       8.6731     YY     -70.2107
        XZ       3.9697     YZ      -0.4021     ZZ     -81.1674
    Octapole Moments (Debye-Ang^2)
       XXX     -21.3950    XXY       5.2603    XYY     -26.4802
       YYY      12.4221    XXZ      -6.0563    XYZ       2.2035
       YYZ      -8.6711    XZZ       0.0350    YZZ     -10.9306
       ZZZ     -12.2831
    Hexadecapole Moments (Debye-Ang^3)
      XXXX   -1538.1647   XXXY      -9.2681   XXYY    -421.7737
      XYYY      87.4947   YYYY    -983.8836   XXXZ      43.3917
      XXYZ       2.8892   XYYZ       2.7869   YYYZ      26.5132
      XXZZ    -350.9089   XYZZ      -8.2548   YYZZ    -202.8645
      XZZZ      28.3661   YZZZ      17.3097   ZZZZ    -205.2590
 -----------------------------------------------------------------
 Calculating analytic gradient of the SCF energy
 Gradient of Coulomb and Exchange Energy
            1           2           3           4           5           6
    1 -11.0743974   0.2400235 -13.2026400  -8.2675527   9.7075404  -0.3816691
    2   5.0473403 -13.2007072  -2.0252417 -11.2887463  -1.3839110   6.6353735
    3  -1.8806849   2.3821549  -1.6003504   0.3405635   1.1581869   0.5974081
            7           8           9          10          11          12
    1   1.2195583 -12.0924204   1.5371421  12.0887557   3.3332197   9.4609057
    2  -2.8407205  24.9891284  -1.6499477   4.6652144  -0.4239910  -2.2350470
    3   1.6686649  -3.7061777 -27.3940890   3.6547561   0.7211024   8.7338522
           13          14          15          16          17          18
    1   7.4087951   2.5199162  -3.7226976   2.6410628  -5.7118125  -2.8733741
    2  -6.4018565   6.1034976   4.9159147  -5.5711487  -0.2882244  -5.0122252
    3  13.2656168  -0.2520101  -1.1456476   1.3166831  -0.8988803   0.1499456
           19          20          21
    1   1.3373400   4.0131683   1.8191361
    2   3.6020442   0.4353196  -4.0720653
    3   3.4279353  -3.0726801   2.5336506
 Gradient of SCF Energy
            1           2           3           4           5           6
    1  -0.0010290  -0.0005663   0.0004259   0.0000631  -0.0005455   0.0014660
    2  -0.0011430  -0.0002739   0.0003645   0.0003826   0.0002031   0.0012789
    3  -0.0006626   0.0010662   0.0001487  -0.0000875  -0.0012309  -0.0022652
            7           8           9          10          11          12
    1   0.0035776   0.0017963   0.0004776   0.0002213  -0.0032203   0.0005798
    2   0.0018683  -0.0004601  -0.0008122   0.0017007  -0.0008743   0.0009022
    3   0.0004808  -0.0016111   0.0009691  -0.0006627   0.0052531  -0.0016031
           13          14          15          16          17          18
    1  -0.0029264  -0.0003196  -0.0000755   0.0002119  -0.0001393  -0.0001119
    2  -0.0032667  -0.0001791   0.0004014   0.0000811  -0.0001289  -0.0000300
    3   0.0000139  -0.0003429  -0.0000438  -0.0000662   0.0001397  -0.0001426
           19          20          21
    1  -0.0000207   0.0002522  -0.0001170
    2  -0.0000184  -0.0001005   0.0001042
    3   0.0000869   0.0003236   0.0002366
 Max gradient component =       5.253E-03
 RMS gradient           =       1.296E-03
 Gradient time:  CPU 5.23 s  wall 5.24 s
 Geometry Optimization Parameters
   NAtoms,    NIC,     NZ,  NCons,   NDum,   NFix, NCnnct, MaxDiis
       21     135       0       0       0       0       0       0

 Cartesian Hessian Update
 Hessian Updated using BFGS Update


** GEOMETRY OPTIMIZATION IN DELOCALIZED INTERNAL COORDINATES **
   Searching for a Minimum

   Optimization Cycle:   3

                       Coordinates (Angstroms)
     ATOM              X           Y           Z
      1  C         2.318201   -0.397834    0.153433
      2  C         0.906885    1.954627   -0.346935
      3  C         2.994415    0.820431    0.124418
      4  C         2.285578    2.002140   -0.127061
      5  C        -3.473132    0.558392   -0.263853
      6  C         0.928997   -0.468998   -0.063228
      7  C         0.238617    0.731163   -0.319270
      8  O         0.985702   -2.857262    0.208514
      9  O        -1.830152    0.527921    1.548474
     10  O        -1.030870   -1.880768   -0.196964
     11  C         0.329912   -1.822710    0.013087
     12  C        -2.109378    0.599245    0.356665
     13  O        -1.138372    0.749984   -0.643674
     14  H        -1.323322   -2.815961   -0.130061
     15  H         2.844873   -1.323565    0.349402
     16  H         0.338514    2.853393   -0.553434
     17  H         4.064027    0.848815    0.298651
     18  H         2.800720    2.956419   -0.152118
     19  H        -3.524391   -0.272245   -0.973770
     20  H        -4.220682    0.430116    0.519380
     21  H        -3.669324    1.482712   -0.816393
   Point Group: c1    Number of degrees of freedom:    57


   Energy is   -648.495380290

 GETINT wrote B to file, NVib is           57
 Hessian Updated using BFGS Update

 55 Hessian modes will be used to form the next step
  Hessian Eigenvalues:
     0.009203    0.011028    0.011523    0.013745    0.016149    0.018389
     0.019534    0.021202    0.022150    0.022362    0.022738    0.022932
     0.022995    0.023094    0.023273    0.032217    0.072407    0.076717
     0.150771    0.159996    0.160000    0.160000    0.160490    0.164690
     0.219909    0.225677    0.232075    0.245935    0.249845    0.249991
     0.249997    0.249998    0.253848    0.296660    0.325992    0.338670
     0.342800    0.344768    0.345323    0.348964    0.351066    0.351455
     0.352182    0.413901    0.423601    0.448599    0.452082    0.457725
     0.462041    0.465716    0.486062    0.513794    0.564205    0.936499
     0.945801

 Minimum Search - Taking Simple RFO Step
 Searching for Lamda that Minimizes Along All modes
 Value Taken    Lamda =  -0.00071992
 Step Taken.  Stepsize is  0.153669

                             Maximum     Tolerance    Cnvgd?
         Gradient           0.005504      0.000300      NO
         Displacement       0.073644      0.001200      NO
         Energy change     -0.000547      0.000001      NO


 New Cartesian Coordinates Obtained by Inverse Iteration

 Displacement from previous Coordinates is:  0.314553
 ----------------------------------------------------
       Standard Nuclear Orientation (Angstroms)
    I     Atom         X            Y            Z
 ----------------------------------------------------
    1      C       2.307406    -0.401316     0.148752
    2      C       0.905517     1.958421    -0.338217
    3      C       2.987852     0.813742     0.127586
    4      C       2.283933     1.999316    -0.118083
    5      C      -3.460597     0.540603    -0.258374
    6      C       0.917038    -0.469281    -0.072179
    7      C       0.231789     0.738093    -0.317111
    8      O       0.977408    -2.858224     0.202433
    9      O      -1.830067     0.626095     1.561279
   10      O      -1.035174    -1.891703    -0.217061
   11      C       0.328190    -1.826625    -0.028795
   12      C      -2.105723     0.632335     0.367040
   13      O      -1.139666     0.778135    -0.638647
   14      H      -1.309934    -2.828046    -0.125685
   15      H       2.827715    -1.333575     0.332189
   16      H       0.337029     2.859335    -0.534756
   17      H       4.057855     0.837868     0.299838
   18      H       2.801936     2.952212    -0.135224
   19      H      -3.488996    -0.321746    -0.931158
   20      H      -4.213651     0.438703     0.522636
   21      H      -3.663044     1.431673    -0.861201
 ----------------------------------------------------
 Molecular Point Group                 C1    NOp =  1
 Largest Abelian Subgroup              C1    NOp =  1
 Nuclear Repulsion Energy =   777.6559478008 hartrees
 There are       47 alpha and       47 beta electrons
 Applying Cartesian multipole field
    Component          Value
    ---------          -----
     (2,0,0)        1.00000E-11
     (0,2,0)        2.00000E-11
     (0,0,2)       -3.00000E-11
 Nucleus-field energy     =     0.0000000248 hartrees
 Requested basis set is 6-31G
 There are 55 shells and 133 basis functions
 A cutoff of  1.0D-11 yielded   1242 shell pairs
 There are      8199 function pairs
 Smallest overlap matrix eigenvalue = 5.51E-04
 Guess MOs from SCF MO coefficient file
Reading MOs from coefficient file
Reading MOs from coefficient file
 A restricted hybrid HF-DFT SCF calculation will be
 performed using Pulay DIIS extrapolation
 Exchange:     0.2000 Hartree-Fock + 0.0800 Slater + 0.7200 Becke88
 Correlation:  0.8100 LYP + 0.1900 VWN1RPA
 Using SG-1 standard quadrature grid
 SCF converges when DIIS error is below 1.0E-08
Geometry optimization detected.  Setting ReadMinima to 0
Setting SaveMinima to 0
 ---------------------------------------
  Cycle       Energy         DIIS Error
 ---------------------------------------
    1    -648.4944574677      1.62E-03
    2    -648.4953801559      1.15E-04
    3    -648.4953953728      1.39E-04
    4    -648.4954387385      5.22E-05
    5    -648.4954432805      2.51E-05
    6    -648.4954442540      1.03E-05
    7    -648.4954444697      1.89E-06
    8    -648.4954444750      1.15E-06
    9    -648.4954444772      3.55E-07
   10    -648.4954444777      1.27E-07
   11    -648.4954444782      4.32E-08
   12    -648.4954444769      8.43E-09 Convergence criterion met
 ---------------------------------------
 SCF time:  CPU 15.52 s  wall 15.56 s
 SCF   energy in the final basis set = -648.4954444769
 Total energy in the final basis set = -648.4954444769
 Analysis of SCF Wavefunction
 
 --------------------------------------------------------------
                    Orbital Energies (a.u.)
 --------------------------------------------------------------
 
 Alpha MOs
 -- Occupied --
-19.203 -19.199 -19.151 -19.151 -10.342 -10.336 -10.276 -10.226
-10.214 -10.210 -10.208 -10.206 -10.198  -1.125  -1.115  -1.040
 -1.031  -0.883  -0.792  -0.787  -0.751  -0.684  -0.648  -0.614
 -0.592  -0.533  -0.510  -0.498  -0.487  -0.475  -0.472  -0.460
 -0.455  -0.451  -0.418  -0.409  -0.404  -0.394  -0.383  -0.369
 -0.364  -0.326  -0.312  -0.289  -0.285  -0.274  -0.262
 -- Virtual --
 -0.065  -0.019  -0.007   0.038   0.060   0.085   0.111   0.129
  0.141   0.149   0.160   0.167   0.173   0.184   0.216   0.229
  0.239   0.269   0.280   0.313   0.317   0.338   0.358   0.392
  0.491   0.499   0.512   0.532   0.535   0.543   0.563   0.575
  0.582   0.588   0.600   0.618   0.621   0.628   0.635   0.644
  0.647   0.662   0.673   0.686   0.720   0.751   0.778   0.807
  0.817   0.828   0.853   0.859   0.871   0.883   0.902   0.922
  0.930   0.946   0.953   0.959   0.979   0.990   0.997   1.030
  1.038   1.050   1.091   1.113   1.121   1.158   1.160   1.205
  1.209   1.255   1.292   1.328   1.426   1.448   1.483   1.506
  1.580   1.779   1.829   1.908   2.056   2.104
 --------------------------------------------------------------
 
          Ground-State Mulliken Net Atomic Charges

     Atom                 Charge (a.u.)
  ----------------------------------------
      1 C                    -0.161640
      2 C                    -0.108928
      3 C                    -0.115017
      4 C                    -0.120495
      5 C                    -0.458234
      6 C                     0.114765
      7 C                     0.256935
      8 O                    -0.409859
      9 O                    -0.397145
     10 O                    -0.564029
     11 C                     0.435092
     12 C                     0.529091
     13 O                    -0.550026
     14 H                     0.391259
     15 H                     0.180521
     16 H                     0.148958
     17 H                     0.141590
     18 H                     0.144225
     19 H                     0.189345
     20 H                     0.174007
     21 H                     0.179583
  ----------------------------------------
  Sum of atomic charges =     0.000000

 -----------------------------------------------------------------
                    Cartesian Multipole Moments
 -----------------------------------------------------------------
    Charge (ESU x 10^10)
                -0.0000
    Dipole Moment (Debye)
         X      -0.5392      Y       1.6070      Z      -1.9030
       Tot       2.5484
    Quadrupole Moments (Debye-Ang)
        XX     -60.0621     XY       8.8208     YY     -70.3537
        XZ       3.8827     YZ      -0.6699     ZZ     -81.2199
    Octapole Moments (Debye-Ang^2)
       XXX     -20.2293    XXY       4.3929    XYY     -25.5805
       YYY      10.3588    XXZ      -5.8463    XYZ       3.0528
       YYZ      -8.6000    XZZ       0.2673    YZZ     -12.0127
       ZZZ     -12.1740
    Hexadecapole Moments (Debye-Ang^3)
      XXXX   -1532.2978   XXXY      -6.3233   XXYY    -422.6042
      XYYY      90.1993   YYYY    -990.0214   XXXZ      43.7086
      XXYZ      -0.1791   XYYZ       3.5913   YYYZ      20.5028
      XXZZ    -349.5352   XYZZ      -6.6004   YYZZ    -205.0364
      XZZZ      29.4634   YZZZ      10.3116   ZZZZ    -206.5828
 -----------------------------------------------------------------
 Calculating analytic gradient of the SCF energy
 Gradient of Coulomb and Exchange Energy
            1           2           3           4           5           6
    1 -11.0146915   0.1797231 -13.1903587  -8.3527253   9.7831564  -0.1954378
    2   5.0695909 -13.2162099  -1.9822433 -11.2451864  -1.2623705   6.6235812
    3  -1.9208289   2.4017334  -1.6487069   0.3051216   1.1113218   0.2920042
            7           8           9          10          11          12
    1   1.1566633 -11.9253652   1.4748368  12.2361140   3.1647744   9.2644041
    2  -2.5821765  24.9239320  -2.8232725   4.6429809  -0.3934311  -1.4923532
    3   1.5411128  -4.1387851 -27.3767581   3.6836661   1.8594136   8.5969431
           13          14          15          16          17          18
    1   7.5306188   2.3790140  -3.6688860   2.6528134  -5.7173241  -2.8852606
    2  -6.6652083   6.1285191   4.9617878  -5.5922173  -0.2692026  -5.0093186
    3  13.3021393  -0.4218749  -1.0634317   1.2607263  -0.8822842   0.1018940
           19          20          21
    1   1.2460470   4.0325971   1.8492868
    2   3.7427230   0.3434092  -3.9033337
    3   3.2956911  -3.0840448   2.7849472
 Gradient of SCF Energy
            1           2           3           4           5           6
    1   0.0000529  -0.0015186   0.0000198   0.0001758   0.0009543  -0.0008636
    2  -0.0001373  -0.0000145   0.0001876  -0.0002598   0.0007711  -0.0001584
    3   0.0002129  -0.0000216  -0.0000722  -0.0002555  -0.0000841   0.0015324
            7           8           9          10          11          12
    1   0.0003580   0.0001710  -0.0004165  -0.0002097  -0.0008279   0.0018878
    2   0.0009625  -0.0003624   0.0011093  -0.0008442  -0.0019127  -0.0019852
    3   0.0009497   0.0022066   0.0006715   0.0015343  -0.0054186  -0.0009323
           13          14          15          16          17          18
    1  -0.0015657   0.0016923  -0.0005003  -0.0000899  -0.0001410  -0.0002669
    2   0.0010283   0.0016507  -0.0001093  -0.0000061  -0.0000163   0.0000243
    3   0.0000464   0.0001776  -0.0002179   0.0000446  -0.0000499   0.0000228
           19          20          21
    1   0.0003435   0.0007052   0.0000395
    2   0.0002553   0.0000160  -0.0001990
    3  -0.0004261   0.0003829  -0.0003039
 Max gradient component =       5.419E-03
 RMS gradient           =       1.069E-03
 Gradient time:  CPU 5.12 s  wall 5.13 s
 Geometry Optimization Parameters
   NAtoms,    NIC,     NZ,  NCons,   NDum,   NFix, NCnnct, MaxDiis
       21     135       0       0       0       0       0       0

 Cartesian Hessian Update
 Hessian Updated using BFGS Update


** GEOMETRY OPTIMIZATION IN DELOCALIZED INTERNAL COORDINATES **
   Searching for a Minimum

   Optimization Cycle:   4

                       Coordinates (Angstroms)
     ATOM              X           Y           Z
      1  C         2.307406   -0.401316    0.148752
      2  C         0.905517    1.958421   -0.338217
      3  C         2.987852    0.813742    0.127586
      4  C         2.283933    1.999316   -0.118083
      5  C        -3.460597    0.540603   -0.258374
      6  C         0.917038   -0.469281   -0.072179
      7  C         0.231789    0.738093   -0.317111
      8  O         0.977408   -2.858224    0.202433
      9  O        -1.830067    0.626095    1.561279
     10  O        -1.035174   -1.891703   -0.217061
     11  C         0.328190   -1.826625   -0.028795
     12  C        -2.105723    0.632335    0.367040
     13  O        -1.139666    0.778135   -0.638647
     14  H        -1.309934   -2.828046   -0.125685
     15  H         2.827715   -1.333575    0.332189
     16  H         0.337029    2.859335   -0.534756
     17  H         4.057855    0.837868    0.299838
     18  H         2.801936    2.952212   -0.135224
     19  H        -3.488996   -0.321746   -0.931158
     20  H        -4.213651    0.438703    0.522636
     21  H        -3.663044    1.431673   -0.861201
   Point Group: c1    Number of degrees of freedom:    57


   Energy is   -648.495444477

 GETINT wrote B to file, NVib is           57
 Hessian Updated using BFGS Update

 56 Hessian modes will be used to form the next step
  Hessian Eigenvalues:
     0.009080    0.011356    0.011536    0.014069    0.016295    0.018511
     0.021186    0.021682    0.022160    0.022530    0.022732    0.022942
     0.023050    0.023094    0.023274    0.042975    0.072951    0.076718
     0.155240    0.159403    0.159997    0.160000    0.160000    0.160022
     0.168276    0.219970    0.224838    0.238874    0.244109    0.247634
     0.249849    0.249996    0.249998    0.275482    0.297169    0.324491
     0.342079    0.343259    0.344772    0.345323    0.348757    0.351037
     0.351448    0.352186    0.414458    0.419049    0.448687    0.456021
     0.457446    0.462964    0.465729    0.485320    0.514936    0.571055
     0.934974    0.943941

 Minimum Search - Taking Simple RFO Step
 Searching for Lamda that Minimizes Along All modes
 Value Taken    Lamda =  -0.00043932
 Step Taken.  Stepsize is  0.102327

                             Maximum     Tolerance    Cnvgd?
         Gradient           0.005002      0.000300      NO
         Displacement       0.044272      0.001200      NO
         Energy change     -0.000064      0.000001      NO


 New Cartesian Coordinates Obtained by Inverse Iteration

 Displacement from previous Coordinates is:  0.232559
 ----------------------------------------------------
       Standard Nuclear Orientation (Angstroms)
    I     Atom         X            Y            Z
 ----------------------------------------------------
    1      C       2.306688    -0.399550     0.167872
    2      C       0.912769     1.955780    -0.354916
    3      C       2.989791     0.813523     0.138362
    4      C       2.289841     1.997032    -0.125953
    5      C      -3.467876     0.535543    -0.241750
    6      C       0.917245    -0.467183    -0.062011
    7      C       0.233256     0.737724    -0.321132
    8      O       0.974004    -2.856495     0.202184
    9      O      -1.825416     0.647328     1.566112
   10      O      -1.028870    -1.893246    -0.264552
   11      C       0.325267    -1.822287    -0.015396
   12      C      -2.108193     0.652590     0.373841
   13      O      -1.140902     0.778422    -0.636686
   14      H      -1.310726    -2.831101    -0.196743
   15      H       2.826505    -1.329570     0.365329
   16      H       0.348123     2.856463    -0.563248
   17      H       4.058865     0.837760     0.317503
   18      H       2.810779     2.948323    -0.150618
   19      H      -3.492671    -0.339011    -0.898631
   20      H      -4.218543     0.438903     0.542615
   21      H      -3.683119     1.415067    -0.856921
 ----------------------------------------------------
 Molecular Point Group                 C1    NOp =  1
 Largest Abelian Subgroup              C1    NOp =  1
 Nuclear Repulsion Energy =   777.0001005487 hartrees
 There are       47 alpha and       47 beta electrons
 Applying Cartesian multipole field
    Component          Value
    ---------          -----
     (2,0,0)        1.00000E-11
     (0,2,0)        2.00000E-11
     (0,0,2)       -3.00000E-11
 Nucleus-field energy     =     0.0000000248 hartrees
 Requested basis set is 6-31G
 There are 55 shells and 133 basis functions
 A cutoff of  1.0D-11 yielded   1242 shell pairs
 There are      8199 function pairs
 Smallest overlap matrix eigenvalue = 5.50E-04
 Guess MOs from SCF MO coefficient file
Reading MOs from coefficient file
Reading MOs from coefficient file
 A restricted hybrid HF-DFT SCF calculation will be
 performed using Pulay DIIS extrapolation
 Exchange:     0.2000 Hartree-Fock + 0.0800 Slater + 0.7200 Becke88
 Correlation:  0.8100 LYP + 0.1900 VWN1RPA
 Using SG-1 standard quadrature grid
 SCF converges when DIIS error is below 1.0E-08
Geometry optimization detected.  Setting ReadMinima to 0
Setting SaveMinima to 0
 ---------------------------------------
  Cycle       Energy         DIIS Error
 ---------------------------------------
    1    -648.4903342294      1.08E-03
    2    -648.4955327393      7.44E-05
    3    -648.4955369216      1.07E-04
    4    -648.4955564713      2.78E-05
    5    -648.4955571051      2.20E-05
    6    -648.4955579516      3.26E-06
    7    -648.4955579741      1.21E-06
    8    -648.4955579773      6.48E-07
    9    -648.4955579783      1.84E-07
   10    -648.4955579787      1.04E-07
   11    -648.4955579784      2.98E-08
   12    -648.4955579771      6.11E-09 Convergence criterion met
 ---------------------------------------
 SCF time:  CPU 15.04 s  wall 15.05 s
 SCF   energy in the final basis set = -648.4955579771
 Total energy in the final basis set = -648.4955579771
 Analysis of SCF Wavefunction
 
 --------------------------------------------------------------
                    Orbital Energies (a.u.)
 --------------------------------------------------------------
 
 Alpha MOs
 -- Occupied --
-19.202 -19.199 -19.151 -19.151 -10.342 -10.337 -10.276 -10.226
-10.214 -10.210 -10.208 -10.206 -10.198  -1.124  -1.115  -1.040
 -1.030  -0.883  -0.792  -0.786  -0.751  -0.684  -0.648  -0.614
 -0.592  -0.533  -0.510  -0.498  -0.486  -0.474  -0.471  -0.460
 -0.454  -0.451  -0.418  -0.409  -0.403  -0.394  -0.383  -0.370
 -0.364  -0.325  -0.312  -0.288  -0.285  -0.274  -0.262
 -- Virtual --
 -0.065  -0.019  -0.007   0.039   0.059   0.084   0.111   0.128
  0.140   0.150   0.159   0.167   0.173   0.184   0.215   0.228
  0.239   0.269   0.280   0.312   0.317   0.337   0.359   0.392
  0.492   0.499   0.510   0.533   0.536   0.543   0.563   0.574
  0.581   0.587   0.599   0.618   0.621   0.629   0.634   0.643
  0.648   0.662   0.674   0.686   0.718   0.751   0.778   0.808
  0.816   0.827   0.854   0.859   0.874   0.883   0.902   0.921
  0.930   0.946   0.955   0.959   0.979   0.990   0.994   1.028
  1.037   1.049   1.090   1.114   1.120   1.155   1.159   1.206
  1.210   1.255   1.293   1.328   1.423   1.446   1.483   1.499
  1.579   1.779   1.827   1.905   2.056   2.105
 --------------------------------------------------------------
 
          Ground-State Mulliken Net Atomic Charges

     Atom                 Charge (a.u.)
  ----------------------------------------
      1 C                    -0.160232
      2 C                    -0.110261
      3 C                    -0.115667
      4 C                    -0.119494
      5 C                    -0.457821
      6 C                     0.113731
      7 C                     0.258945
      8 O                    -0.409773
      9 O                    -0.396281
     10 O                    -0.565149
     11 C                     0.434661
     12 C                     0.527175
     13 O                    -0.549898
     14 H                     0.391096
     15 H                     0.180454
     16 H                     0.148589
     17 H                     0.141708
     18 H                     0.144309
     19 H                     0.190455
     20 H                     0.174477
     21 H                     0.178976
  ----------------------------------------
  Sum of atomic charges =    -0.000000

 -----------------------------------------------------------------
                    Cartesian Multipole Moments
 -----------------------------------------------------------------
    Charge (ESU x 10^10)
                 0.0000
    Dipole Moment (Debye)
         X      -0.5710      Y       1.6014      Z      -1.8973
       Tot       2.5476
    Quadrupole Moments (Debye-Ang)
        XX     -59.8063     XY       8.8731     YY     -70.4083
        XZ       3.9089     YZ      -0.6278     ZZ     -81.2428
    Octapole Moments (Debye-Ang^2)
       XXX     -21.1077    XXY       4.1514    XYY     -25.6060
       YYY       9.5922    XXZ      -5.6297    XYZ       2.6952
       YYZ      -9.5981    XZZ       0.3231    YZZ     -12.2891
       ZZZ     -12.2895
    Hexadecapole Moments (Debye-Ang^3)
      XXXX   -1531.5816   XXXY      -5.8084   XXYY    -422.6946
      XYYY      90.6122   YYYY    -989.9345   XXXZ      43.7738
      XXYZ      -0.3568   XYYZ       4.5208   YYYZ      21.2861
      XXZZ    -350.1858   XYZZ      -6.2675   YYZZ    -205.2017
      XZZZ      28.9507   YZZZ       8.7623   ZZZZ    -208.8315
 -----------------------------------------------------------------
 Calculating analytic gradient of the SCF energy
 Gradient of Coulomb and Exchange Energy
            1           2           3           4           5           6
    1 -10.9453900   0.1350900 -13.2108861  -8.3622135   9.7587453  -0.2403449
    2   5.0646665 -13.1069601  -1.9774160 -11.2284478  -1.1407441   6.6029793
    3  -2.0630924   2.6480370  -1.7535353   0.3829914   0.9977410   0.2937438
            7           8           9          10          11          12
    1   1.1699604 -11.8842513   1.3212005  12.0958840   3.2870450   9.3467910
    2  -2.5948883  24.9709427  -2.8785380   4.6799483  -0.5425957  -1.8294487
    3   1.5932643  -4.0395284 -27.2889763   4.1834159   1.1521043   8.6259677
           13          14          15          16          17          18
    1   7.5599790   2.4453494  -3.6771010   2.6278490  -5.7112437  -2.9055074
    2  -6.5163783   6.0984990   4.9412157  -5.5805475  -0.2711835  -4.9950928
    3  13.1674343  -0.2447115  -1.1539346   1.3338839  -0.9190912   0.1408606
           19          20          21
    1   1.2595763   4.0387355   1.8907325
    2   3.8133437   0.3341754  -3.8435297
    3   3.2135213  -3.0768164   2.8067207
 Gradient of SCF Energy
            1           2           3           4           5           6
    1   0.0000944  -0.0007111  -0.0000902   0.0003695   0.0000694   0.0000254
    2   0.0001239  -0.0000906   0.0002535  -0.0003216  -0.0009120  -0.0002550
    3   0.0001079  -0.0002182  -0.0000189   0.0001004   0.0002885  -0.0006458
            7           8           9          10          11          12
    1   0.0003407  -0.0000770  -0.0002315   0.0009906  -0.0008338   0.0006661
    2  -0.0000305  -0.0001883  -0.0000909  -0.0011834   0.0004661   0.0022837
    3   0.0001948  -0.0010833   0.0000073  -0.0010226   0.0023932  -0.0002534
           13          14          15          16          17          18
    1  -0.0005777   0.0000363  -0.0000281  -0.0000244   0.0000130  -0.0000315
    2  -0.0001733   0.0002662  -0.0000815  -0.0000206   0.0000287   0.0000180
    3   0.0002361   0.0001228  -0.0000342   0.0000523  -0.0000708   0.0000643
           19          20          21
    1  -0.0001789  -0.0000085   0.0001874
    2   0.0000998  -0.0001504  -0.0000418
    3  -0.0002707  -0.0000269   0.0000772
 Max gradient component =       2.393E-03
 RMS gradient           =       5.670E-04
 Gradient time:  CPU 5.11 s  wall 5.11 s
 Geometry Optimization Parameters
   NAtoms,    NIC,     NZ,  NCons,   NDum,   NFix, NCnnct, MaxDiis
       21     135       0       0       0       0       0       0

 Cartesian Hessian Update
 Hessian Updated using BFGS Update


** GEOMETRY OPTIMIZATION IN DELOCALIZED INTERNAL COORDINATES **
   Searching for a Minimum

   Optimization Cycle:   5

                       Coordinates (Angstroms)
     ATOM              X           Y           Z
      1  C         2.306688   -0.399550    0.167872
      2  C         0.912769    1.955780   -0.354916
      3  C         2.989791    0.813523    0.138362
      4  C         2.289841    1.997032   -0.125953
      5  C        -3.467876    0.535543   -0.241750
      6  C         0.917245   -0.467183   -0.062011
      7  C         0.233256    0.737724   -0.321132
      8  O         0.974004   -2.856495    0.202184
      9  O        -1.825416    0.647328    1.566112
     10  O        -1.028870   -1.893246   -0.264552
     11  C         0.325267   -1.822287   -0.015396
     12  C        -2.108193    0.652590    0.373841
     13  O        -1.140902    0.778422   -0.636686
     14  H        -1.310726   -2.831101   -0.196743
     15  H         2.826505   -1.329570    0.365329
     16  H         0.348123    2.856463   -0.563248
     17  H         4.058865    0.837760    0.317503
     18  H         2.810779    2.948323   -0.150618
     19  H        -3.492671   -0.339011   -0.898631
     20  H        -4.218543    0.438903    0.542615
     21  H        -3.683119    1.415067   -0.856921
   Point Group: c1    Number of degrees of freedom:    57


   Energy is   -648.495557977

 GETINT wrote B to file, NVib is           57
 Hessian Updated using BFGS Update

 57 Hessian modes will be used to form the next step
  Hessian Eigenvalues:
     0.008948    0.011470    0.011700    0.014074    0.017221    0.018777
     0.021189    0.022140    0.022346    0.022728    0.022925    0.022989
     0.023093    0.023272    0.028410    0.058617    0.072474    0.076858
     0.152197    0.158691    0.159997    0.160000    0.160000    0.160004
     0.161212    0.166514    0.219852    0.224979    0.231606    0.243517
     0.248052    0.249994    0.249998    0.250134    0.251320    0.289782
     0.326665    0.336190    0.342764    0.344774    0.345344    0.348794
     0.351027    0.351439    0.352192    0.413743    0.419336    0.447843
     0.450908    0.457576    0.460896    0.465779    0.480011    0.511828
     0.560456    0.934776    0.943840

 Minimum Search - Taking Simple RFO Step
 Searching for Lamda that Minimizes Along All modes
 Value Taken    Lamda =  -0.00030132
 Step Taken.  Stepsize is  0.098727

                             Maximum     Tolerance    Cnvgd?
         Gradient           0.002591      0.000300      NO
         Displacement       0.067145      0.001200      NO
         Energy change     -0.000114      0.000001      NO


 New Cartesian Coordinates Obtained by Inverse Iteration

 Displacement from previous Coordinates is:  0.380161
 ----------------------------------------------------
       Standard Nuclear Orientation (Angstroms)
    I     Atom         X            Y            Z
 ----------------------------------------------------
    1      C       2.312787    -0.393749     0.166871
    2      C       0.918280     1.959310    -0.364102
    3      C       2.995394     0.819563     0.134778
    4      C       2.295009     2.002062    -0.133583
    5      C      -3.473019     0.542206    -0.250080
    6      C       0.923654    -0.461102    -0.064272
    7      C       0.238157     0.740628    -0.327983
    8      O       0.963954    -2.847302     0.224170
    9      O      -1.818409     0.510526     1.550523
   10      O      -1.036623    -1.868633    -0.230355
   11      C       0.323195    -1.811230    -0.005475
   12      C      -2.106028     0.592384     0.362306
   13      O      -1.137975     0.773243    -0.641414
   14      H      -1.333248    -2.802576    -0.153923
   15      H       2.834241    -1.321351     0.371792
   16      H       0.354750     2.859727    -0.576779
   17      H       4.064076     0.844940     0.316856
   18      H       2.816355     2.953161    -0.161162
   19      H      -3.522409    -0.294919    -0.952510
   20      H      -4.222762     0.418934     0.531783
   21      H      -3.672564     1.460195    -0.812178
 ----------------------------------------------------
 Molecular Point Group                 C1    NOp =  1
 Largest Abelian Subgroup              C1    NOp =  1
 Nuclear Repulsion Energy =   778.4607448764 hartrees
 There are       47 alpha and       47 beta electrons
 Applying Cartesian multipole field
    Component          Value
    ---------          -----
     (2,0,0)        1.00000E-11
     (0,2,0)        2.00000E-11
     (0,0,2)       -3.00000E-11
 Nucleus-field energy     =     0.0000000247 hartrees
 Requested basis set is 6-31G
 There are 55 shells and 133 basis functions
 A cutoff of  1.0D-11 yielded   1243 shell pairs
 There are      8200 function pairs
 Smallest overlap matrix eigenvalue = 5.51E-04
 Guess MOs from SCF MO coefficient file
Reading MOs from coefficient file
Reading MOs from coefficient file
 A restricted hybrid HF-DFT SCF calculation will be
 performed using Pulay DIIS extrapolation
 Exchange:     0.2000 Hartree-Fock + 0.0800 Slater + 0.7200 Becke88
 Correlation:  0.8100 LYP + 0.1900 VWN1RPA
 Using SG-1 standard quadrature grid
 SCF converges when DIIS error is below 1.0E-08
Geometry optimization detected.  Setting ReadMinima to 0
Setting SaveMinima to 0
 ---------------------------------------
  Cycle       Energy         DIIS Error
 ---------------------------------------
    1    -648.4881613903      1.93E-03
    2    -648.4955079960      1.21E-04
    3    -648.4955339851      1.56E-04
    4    -648.4955728636      5.77E-05
    5    -648.4955779389      2.27E-05
    6    -648.4955789250      7.15E-06
    7    -648.4955790286      1.93E-06
    8    -648.4955790365      8.25E-07
    9    -648.4955790372      3.26E-07
   10    -648.4955790381      1.30E-07
   11    -648.4955790380      3.73E-08
   12    -648.4955790373      8.94E-09 Convergence criterion met
 ---------------------------------------
 SCF time:  CPU 15.32 s  wall 15.33 s
 SCF   energy in the final basis set = -648.4955790373
 Total energy in the final basis set = -648.4955790373
 Analysis of SCF Wavefunction
 
 --------------------------------------------------------------
                    Orbital Energies (a.u.)
 --------------------------------------------------------------
 
 Alpha MOs
 -- Occupied --
-19.201 -19.198 -19.150 -19.150 -10.341 -10.337 -10.276 -10.226
-10.214 -10.210 -10.208 -10.205 -10.199  -1.123  -1.113  -1.039
 -1.030  -0.882  -0.792  -0.785  -0.751  -0.683  -0.647  -0.613
 -0.591  -0.532  -0.510  -0.498  -0.486  -0.473  -0.470  -0.460
 -0.453  -0.450  -0.418  -0.409  -0.404  -0.393  -0.383  -0.368
 -0.364  -0.325  -0.312  -0.288  -0.284  -0.274  -0.261
 -- Virtual --
 -0.064  -0.019  -0.006   0.040   0.059   0.084   0.111   0.128
  0.141   0.150   0.160   0.167   0.173   0.183   0.215   0.228
  0.241   0.270   0.281   0.312   0.317   0.337   0.360   0.393
  0.492   0.500   0.514   0.533   0.536   0.543   0.564   0.574
  0.582   0.588   0.600   0.617   0.620   0.628   0.635   0.644
  0.648   0.662   0.674   0.686   0.718   0.749   0.779   0.810
  0.816   0.828   0.855   0.860   0.869   0.883   0.905   0.922
  0.931   0.948   0.953   0.958   0.980   0.987   1.010   1.031
  1.037   1.053   1.089   1.111   1.120   1.159   1.161   1.205
  1.208   1.264   1.292   1.325   1.429   1.451   1.486   1.517
  1.582   1.780   1.827   1.911   2.064   2.107
 --------------------------------------------------------------
 
          Ground-State Mulliken Net Atomic Charges

     Atom                 Charge (a.u.)
  ----------------------------------------
      1 C                    -0.158446
      2 C                    -0.112417
      3 C                    -0.116694
      4 C                    -0.118994
      5 C                    -0.458288
      6 C                     0.113058
      7 C                     0.259333
      8 O                    -0.409558
      9 O                    -0.398587
     10 O                    -0.568218
     11 C                     0.437871
     12 C                     0.534791
     13 O                    -0.552187
     14 H                     0.391680
     15 H                     0.179949
     16 H                     0.148128
     17 H                     0.141523
     18 H                     0.144171
     19 H                     0.188914
     20 H                     0.174984
     21 H                     0.178988
  ----------------------------------------
  Sum of atomic charges =     0.000000

 -----------------------------------------------------------------
                    Cartesian Multipole Moments
 -----------------------------------------------------------------
    Charge (ESU x 10^10)
                 0.0000
    Dipole Moment (Debye)
         X      -0.6149      Y       1.7407      Z      -1.8950
       Tot       2.6456
    Quadrupole Moments (Debye-Ang)
        XX     -59.5738     XY       8.6183     YY     -70.3489
        XZ       3.8425     YZ      -0.1958     ZZ     -81.1737
    Octapole Moments (Debye-Ang^2)
       XXX     -21.9395    XXY       4.8367    XYY     -25.8552
       YYY      11.8257    XXZ      -5.4476    XYZ       1.9970
       YYZ      -8.9820    XZZ       0.0495    YZZ     -10.8858
       ZZZ     -11.9368
    Hexadecapole Moments (Debye-Ang^3)
      XXXX   -1533.4266   XXXY     -13.2950   XXYY    -419.7171
      XYYY      81.7705   YYYY    -980.1445   XXXZ      42.9717
      XXYZ       3.5302   XYYZ       2.2941   YYYZ      28.2521
      XXZZ    -350.5177   XYZZ      -9.9992   YYZZ    -202.3269
      XZZZ      27.8499   YZZZ      18.0419   ZZZZ    -206.9911
 -----------------------------------------------------------------
 Calculating analytic gradient of the SCF energy
 Gradient of Coulomb and Exchange Energy
            1           2           3           4           5           6
    1 -10.9941823   0.1570123 -13.2279603  -8.3268020   9.7722758  -0.3834622
    2   5.0637375 -13.1221379  -2.0069098 -11.2583807  -1.3335108   6.5319315
    3  -2.0142589   2.6557949  -1.7446319   0.3705971   1.0023290   0.3796638
            7           8           9          10          11          12
    1   1.1471940 -11.8350720   1.3677272  11.9682234   3.2172912   9.4958822
    2  -2.7866988  25.0904316  -1.4349670   4.7234450  -0.5184947  -2.2867161
    3   1.6692302  -4.2346128 -27.4404670   4.0507619   1.4013524   8.8299490
           13          14          15          16          17          18
    1   7.5614633   2.5509918  -3.6981450   2.6152021  -5.7071100  -2.9086002
    2  -6.8519103   6.0931006   4.9236960  -5.5636945  -0.2773685  -4.9885110
    3  13.0819967  -0.2928883  -1.1981102   1.3565989  -0.9342412   0.1559657
           19          20          21
    1   1.3375116   4.0516113   1.8389478
    2   3.6283652   0.4127891  -4.0381965
    3   3.3920015  -3.0537192   2.5666883
 Gradient of SCF Energy
            1           2           3           4           5           6
    1  -0.0000241   0.0006049  -0.0000886   0.0003112  -0.0009187  -0.0000894
    2   0.0001527  -0.0001952   0.0002304   0.0000319  -0.0002475   0.0002958
    3   0.0000024   0.0002678  -0.0000576   0.0002801   0.0001925  -0.0005451
            7           8           9          10          11          12
    1   0.0009793  -0.0001936   0.0004042   0.0004767  -0.0000585  -0.0000962
    2   0.0005273   0.0002378  -0.0004277   0.0013187   0.0006238   0.0002448
    3  -0.0000853   0.0000298   0.0001476   0.0007065  -0.0002583  -0.0011529
           13          14          15          16          17          18
    1  -0.0004388  -0.0009279   0.0002969   0.0001150   0.0000938   0.0001465
    2  -0.0022514  -0.0008706   0.0000605  -0.0000070   0.0000177   0.0000148
    3   0.0002953  -0.0001568   0.0001218  -0.0000317  -0.0000066   0.0000281
           19          20          21
    1   0.0000156  -0.0004591  -0.0001492
    2   0.0000680  -0.0000219   0.0001970
    3   0.0002084  -0.0002305   0.0002446
 Max gradient component =       2.251E-03
 RMS gradient           =       4.990E-04
 Gradient time:  CPU 5.16 s  wall 5.16 s
 Geometry Optimization Parameters
   NAtoms,    NIC,     NZ,  NCons,   NDum,   NFix, NCnnct, MaxDiis
       21     135       0       0       0       0       0       0

 Cartesian Hessian Update
 Hessian Updated using BFGS Update


** GEOMETRY OPTIMIZATION IN DELOCALIZED INTERNAL COORDINATES **
   Searching for a Minimum

   Optimization Cycle:   6

                       Coordinates (Angstroms)
     ATOM              X           Y           Z
      1  C         2.312787   -0.393749    0.166871
      2  C         0.918280    1.959310   -0.364102
      3  C         2.995394    0.819563    0.134778
      4  C         2.295009    2.002062   -0.133583
      5  C        -3.473019    0.542206   -0.250080
      6  C         0.923654   -0.461102   -0.064272
      7  C         0.238157    0.740628   -0.327983
      8  O         0.963954   -2.847302    0.224170
      9  O        -1.818409    0.510526    1.550523
     10  O        -1.036623   -1.868633   -0.230355
     11  C         0.323195   -1.811230   -0.005475
     12  C        -2.106028    0.592384    0.362306
     13  O        -1.137975    0.773243   -0.641414
     14  H        -1.333248   -2.802576   -0.153923
     15  H         2.834241   -1.321351    0.371792
     16  H         0.354750    2.859727   -0.576779
     17  H         4.064076    0.844940    0.316856
     18  H         2.816355    2.953161   -0.161162
     19  H        -3.522409   -0.294919   -0.952510
     20  H        -4.222762    0.418934    0.531783
     21  H        -3.672564    1.460195   -0.812178
   Point Group: c1    Number of degrees of freedom:    57


   Energy is   -648.495579037

 GETINT wrote B to file, NVib is           57
 Hessian Updated using BFGS Update

 57 Hessian modes will be used to form the next step
  Hessian Eigenvalues:
     0.008654    0.011313    0.011632    0.014348    0.017957    0.019771
     0.021231    0.022147    0.022400    0.022726    0.022921    0.022998
     0.023100    0.023270    0.033404    0.059080    0.072684    0.076717
     0.155208    0.159332    0.159988    0.159999    0.160000    0.160012
     0.160791    0.168186    0.219952    0.224948    0.239527    0.243717
     0.247714    0.249296    0.249998    0.250006    0.272862    0.323472
     0.328555    0.342745    0.344695    0.345318    0.348762    0.351023
     0.351434    0.352173    0.369662    0.414484    0.428842    0.447957
     0.456446    0.459986    0.464813    0.476686    0.485586    0.512952
     0.561882    0.935013    0.943820

 Minimum Search - Taking Simple RFO Step
 Searching for Lamda that Minimizes Along All modes
 Value Taken    Lamda =  -0.00019288
 Step Taken.  Stepsize is  0.051566

                             Maximum     Tolerance    Cnvgd?
         Gradient           0.005260      0.000300      NO
         Displacement       0.029166      0.001200      NO
         Energy change     -0.000021      0.000001      NO


 New Cartesian Coordinates Obtained by Inverse Iteration

 Displacement from previous Coordinates is:  0.174340
 ----------------------------------------------------
       Standard Nuclear Orientation (Angstroms)
    I     Atom         X            Y            Z
 ----------------------------------------------------
    1      C       2.308849    -0.395856     0.167782
    2      C       0.913043     1.957583    -0.358869
    3      C       2.991101     0.817456     0.134776
    4      C       2.290139     2.000105    -0.132713
    5      C      -3.470188     0.545949    -0.247618
    6      C       0.919361    -0.464424    -0.060473
    7      C       0.233702     0.739029    -0.321641
    8      O       0.974815    -2.851235     0.220815
    9      O      -1.825382     0.560695     1.561812
   10      O      -1.029258    -1.888008    -0.249741
   11      C       0.327380    -1.818871    -0.008933
   12      C      -2.108349     0.609286     0.370724
   13      O      -1.140602     0.778748    -0.634698
   14      H      -1.312497    -2.825298    -0.176401
   15      H       2.829446    -1.324674     0.368414
   16      H       0.347828     2.857442    -0.569532
   17      H       4.060113     0.842827     0.314076
   18      H       2.810768     2.951435    -0.161770
   19      H      -3.516657    -0.309523    -0.928093
   20      H      -4.222691     0.445544     0.534482
   21      H      -3.664104     1.447805    -0.837138
 ----------------------------------------------------
[...]
     12  C        -2.105726    0.577522    0.382883
     13  O        -1.142071    0.822541   -0.612188
     14  H        -1.322455   -2.801225   -0.241553
     15  H         2.812357   -1.319935    0.390825
     16  H         0.367797    2.874216   -0.585323
     17  H         4.064711    0.833753    0.305424
     18  H         2.835126    2.948394   -0.196589
     19  H        -3.523126   -0.333354   -0.906827
     20  H        -4.223762    0.447877    0.542061
     21  H        -3.644500    1.426977   -0.840757
   Point Group: c1    Number of degrees of freedom:    57


   Energy is   -648.495723369

 GETINT wrote B to file, NVib is           57
 Hessian Updated using BFGS Update

 57 Hessian modes will be used to form the next step
  Hessian Eigenvalues:
     0.001122    0.007820    0.012427    0.017869    0.019864    0.021286
     0.022145    0.022371    0.022709    0.022847    0.022991    0.023115
     0.023253    0.045631    0.051280    0.065897    0.072534    0.076920
     0.155298    0.159509    0.159858    0.159987    0.160002    0.160270
     0.168688    0.170340    0.219965    0.223621    0.234144    0.240757
     0.248611    0.249252    0.250266    0.252997    0.280805    0.325572
     0.333055    0.342835    0.344859    0.345206    0.348835    0.351038
     0.351443    0.352196    0.391798    0.404390    0.415648    0.441347
     0.454168    0.458650    0.464751    0.471618    0.514397    0.562322
     0.607146    0.922863    0.947849

 Minimum Search - Taking Simple RFO Step
 Searching for Lamda that Minimizes Along All modes
 Value Taken    Lamda =   0.00000000
 Step Taken.  Stepsize is  0.008921

                             Maximum     Tolerance    Cnvgd?
         Gradient           0.000079      0.000300     YES
         Displacement       0.003625      0.001200      NO
         Energy change     -0.000001      0.000001      NO


 New Cartesian Coordinates Obtained by Inverse Iteration

 Displacement from previous Coordinates is:  0.016605
 ----------------------------------------------------
       Standard Nuclear Orientation (Angstroms)
    I     Atom         X            Y            Z
 ----------------------------------------------------
    1      C       2.300689    -0.388858     0.178315
    2      C       0.926295     1.971411    -0.369384
    3      C       2.995091     0.816933     0.128785
    4      C       2.304833     2.003008    -0.151351
    5      C      -3.466813     0.531346    -0.238032
    6      C       0.910466    -0.447531    -0.048621
    7      C       0.234449     0.760040    -0.315950
    8      O       0.931830    -2.824628     0.313088
    9      O      -1.818200     0.444089     1.565849
   10      O      -1.028546    -1.868121    -0.325775
   11      C       0.308422    -1.797195     0.009310
   12      C      -2.105526     0.578303     0.382621
   13      O      -1.142019     0.822039    -0.612399
   14      H      -1.322774    -2.801015    -0.241326
   15      H       2.812655    -1.320125     0.389500
   16      H       0.367445     2.874346    -0.583743
   17      H       4.064783     0.833783     0.304967
   18      H       2.834766     2.948644    -0.194936
   19      H      -3.523869    -0.336358    -0.903226
   20      H      -4.223749     0.451608     0.542301
   21      H      -3.643410     1.424296    -0.844731
 ----------------------------------------------------
 Molecular Point Group                 C1    NOp =  1
 Largest Abelian Subgroup              C1    NOp =  1
 Nuclear Repulsion Energy =   778.6966201258 hartrees
 There are       47 alpha and       47 beta electrons
 Applying Cartesian multipole field
    Component          Value
    ---------          -----
     (2,0,0)        1.00000E-11
     (0,2,0)        2.00000E-11
     (0,0,2)       -3.00000E-11
 Nucleus-field energy     =     0.0000000244 hartrees
 Requested basis set is 6-31G
 There are 55 shells and 133 basis functions
 A cutoff of  1.0D-11 yielded   1243 shell pairs
 There are      8200 function pairs
 Smallest overlap matrix eigenvalue = 5.52E-04
 Guess MOs from SCF MO coefficient file
Reading MOs from coefficient file
Reading MOs from coefficient file
 A restricted hybrid HF-DFT SCF calculation will be
 performed using Pulay DIIS extrapolation
 Exchange:     0.2000 Hartree-Fock + 0.0800 Slater + 0.7200 Becke88
 Correlation:  0.8100 LYP + 0.1900 VWN1RPA
 Using SG-1 standard quadrature grid
 SCF converges when DIIS error is below 1.0E-08
Geometry optimization detected.  Setting ReadMinima to 0
Setting SaveMinima to 0
 ---------------------------------------
  Cycle       Energy         DIIS Error
 ---------------------------------------
    1    -648.4957492203      5.06E-05
    2    -648.4957235872      7.15E-06
    3    -648.4957232683      1.62E-05
    4    -648.4957237275      1.25E-06
    5    -648.4957237292      8.61E-07
    6    -648.4957237304      3.96E-07
    7    -648.4957237319      1.02E-07
    8    -648.4957237307      4.61E-08
    9    -648.4957237306      9.17E-09 Convergence criterion met
 ---------------------------------------
 SCF time:  CPU 11.29 s  wall 11.40 s
 SCF   energy in the final basis set = -648.4957237306
 Total energy in the final basis set = -648.4957237306
 Analysis of SCF Wavefunction
 
 --------------------------------------------------------------
                    Orbital Energies (a.u.)
 --------------------------------------------------------------
 
 Alpha MOs
 -- Occupied --
-19.202 -19.199 -19.152 -19.151 -10.341 -10.337 -10.276 -10.226
-10.214 -10.210 -10.208 -10.205 -10.199  -1.123  -1.114  -1.040
 -1.030  -0.882  -0.792  -0.786  -0.751  -0.684  -0.647  -0.614
 -0.592  -0.532  -0.510  -0.499  -0.486  -0.473  -0.471  -0.460
 -0.453  -0.450  -0.418  -0.409  -0.404  -0.393  -0.384  -0.369
 -0.364  -0.325  -0.314  -0.289  -0.285  -0.273  -0.260
 -- Virtual --
 -0.064  -0.020  -0.005   0.039   0.059   0.085   0.111   0.128
  0.141   0.151   0.159   0.167   0.173   0.184   0.215   0.228
  0.241   0.269   0.281   0.312   0.316   0.337   0.359   0.394
  0.492   0.499   0.512   0.533   0.534   0.542   0.565   0.574
  0.582   0.587   0.600   0.618   0.621   0.629   0.635   0.644
  0.648   0.662   0.674   0.688   0.715   0.749   0.779   0.810
  0.813   0.827   0.854   0.860   0.874   0.883   0.903   0.920
  0.932   0.948   0.954   0.962   0.984   0.987   1.014   1.033
  1.037   1.051   1.090   1.111   1.119   1.157   1.160   1.202
  1.208   1.260   1.292   1.325   1.422   1.445   1.484   1.505
  1.585   1.777   1.827   1.909   2.063   2.104
 --------------------------------------------------------------
 
          Ground-State Mulliken Net Atomic Charges

     Atom                 Charge (a.u.)
  ----------------------------------------
      1 C                    -0.159720
      2 C                    -0.114291
      3 C                    -0.116500
      4 C                    -0.118715
      5 C                    -0.458277
      6 C                     0.116643
      7 C                     0.259030
      8 O                    -0.409124
      9 O                    -0.398249
     10 O                    -0.568226
     11 C                     0.436890
     12 C                     0.533431
     13 O                    -0.552318
     14 H                     0.391446
     15 H                     0.180109
     16 H                     0.148753
     17 H                     0.141436
     18 H                     0.143889
     19 H                     0.190547
     20 H                     0.174400
     21 H                     0.178845
  ----------------------------------------
  Sum of atomic charges =     0.000000

 -----------------------------------------------------------------
                    Cartesian Multipole Moments
 -----------------------------------------------------------------
    Charge (ESU x 10^10)
                 0.0000
    Dipole Moment (Debye)
         X      -0.5824      Y       1.7342      Z      -2.0224
       Tot       2.7270
    Quadrupole Moments (Debye-Ang)
        XX     -59.5437     XY       8.3691     YY     -70.2351
        XZ       3.5583     YZ       0.5975     ZZ     -81.3552
    Octapole Moments (Debye-Ang^2)
       XXX     -20.8447    XXY       4.2267    XYY     -24.5701
       YYY       9.9426    XXZ      -6.1947    XYZ       1.5699
       YYZ     -11.4296    XZZ       0.1584    YZZ     -10.0855
       ZZZ     -13.4568
    Hexadecapole Moments (Debye-Ang^3)
      XXXX   -1529.5922   XXXY     -19.0808   XXYY    -417.3077
      XYYY      73.2752   YYYY    -971.7231   XXXZ      41.8979
      XXYZ       6.4661   XYYZ       0.6321   YYYZ      38.8412
      XXZZ    -350.3100   XYZZ     -12.6858   YYZZ    -202.7348
      XZZZ      28.2470   YZZZ      22.3958   ZZZZ    -211.6488
 -----------------------------------------------------------------
 Calculating analytic gradient of the SCF energy
 Gradient of Coulomb and Exchange Energy
            1           2           3           4           5           6
    1 -10.9992949   0.1249040 -13.2350626  -8.4225251   9.8141916  -0.2740568
    2   5.0995520 -13.1701041  -1.9369152 -11.1930865  -1.3516581   6.4471566
    3  -1.9236580   2.7893455  -1.6871905   0.5555284   1.0069006   0.1892425
            7           8           9          10          11          12
    1   1.1198608 -11.5399691   1.4146831  11.6875576   3.1764353   9.4794610
    2  -2.5971509  24.9841214  -0.3581686   4.7298486  -0.5223857  -2.6750252
    3   1.4183608  -5.6925407 -27.4679043   5.5855155   1.7146536   8.6550625
           13          14          15          16          17          18
    1   7.6642224   2.5056525  -3.6480928   2.5926589  -5.7139672  -2.9450843
    2  -7.7900399   6.1064561   4.9581880  -5.5656984  -0.2331313  -4.9580289
    3  12.6828525  -0.2811135  -1.2118302   1.3651176  -0.9026889   0.2391426
           19          20          21
    1   1.3840271   4.0583407   1.7560577
    2   3.7531337   0.2248889  -3.9519528
    3   3.2347351  -3.0546982   2.7851673
 Gradient of SCF Energy
            1           2           3           4           5           6
    1   0.0000045  -0.0000212   0.0000005   0.0000034   0.0000100  -0.0000055
    2   0.0000072   0.0000065   0.0000172  -0.0000022  -0.0000507   0.0000138
    3   0.0000007  -0.0000110  -0.0000028   0.0000016  -0.0000114   0.0000038
            7           8           9          10          11          12
    1   0.0000078  -0.0000118  -0.0000059   0.0000213   0.0000017   0.0000098
    2  -0.0000253   0.0000115  -0.0000060  -0.0000045  -0.0000306   0.0000542
    3   0.0000033   0.0000218  -0.0000077  -0.0000007  -0.0000112   0.0000130
           13          14          15          16          17          18
    1  -0.0000051   0.0000078  -0.0000011  -0.0000058  -0.0000015  -0.0000076
    2  -0.0000077   0.0000070   0.0000087  -0.0000007   0.0000099   0.0000069
    3   0.0000086   0.0000083   0.0000063  -0.0000041  -0.0000005  -0.0000055
           19          20          21
    1  -0.0000027   0.0000024  -0.0000009
    2   0.0000004  -0.0000137  -0.0000017
    3  -0.0000151  -0.0000019   0.0000045
 Max gradient component =       5.424E-05
 RMS gradient           =       1.355E-05
 Gradient time:  CPU 5.12 s  wall 5.12 s
 Geometry Optimization Parameters
   NAtoms,    NIC,     NZ,  NCons,   NDum,   NFix, NCnnct, MaxDiis
       21     135       0       0       0       0       0       0

 Cartesian Hessian Update
 Hessian Updated using BFGS Update


** GEOMETRY OPTIMIZATION IN DELOCALIZED INTERNAL COORDINATES **
   Searching for a Minimum

   Optimization Cycle:  14

                       Coordinates (Angstroms)
     ATOM              X           Y           Z
      1  C         2.300689   -0.388858    0.178315
      2  C         0.926295    1.971411   -0.369384
      3  C         2.995091    0.816933    0.128785
      4  C         2.304833    2.003008   -0.151351
      5  C        -3.466813    0.531346   -0.238032
      6  C         0.910466   -0.447531   -0.048621
      7  C         0.234449    0.760040   -0.315950
      8  O         0.931830   -2.824628    0.313088
      9  O        -1.818200    0.444089    1.565849
     10  O        -1.028546   -1.868121   -0.325775
     11  C         0.308422   -1.797195    0.009310
     12  C        -2.105526    0.578303    0.382621
     13  O        -1.142019    0.822039   -0.612399
     14  H        -1.322774   -2.801015   -0.241326
     15  H         2.812655   -1.320125    0.389500
     16  H         0.367445    2.874346   -0.583743
     17  H         4.064783    0.833783    0.304967
     18  H         2.834766    2.948644   -0.194936
     19  H        -3.523869   -0.336358   -0.903226
     20  H        -4.223749    0.451608    0.542301
     21  H        -3.643410    1.424296   -0.844731
   Point Group: c1    Number of degrees of freedom:    57


   Energy is   -648.495723731

 GETINT wrote B to file, NVib is           57
 Hessian Updated using BFGS Update

 57 Hessian modes will be used to form the next step
  Hessian Eigenvalues:
     0.001046    0.003972    0.013087    0.018472    0.020136    0.021371
     0.022141    0.022498    0.022737    0.022948    0.023041    0.023183
     0.023256    0.046311    0.050542    0.064633    0.072631    0.075863
     0.155298    0.159790    0.159883    0.159988    0.160026    0.160420
     0.168834    0.169446    0.219977    0.224076    0.233844    0.242232
     0.248845    0.249717    0.250258    0.256657    0.278611    0.326771
     0.335489    0.343008    0.345188    0.345266    0.348948    0.351038
     0.351444    0.352208    0.391814    0.415283    0.429137    0.443762
     0.454706    0.459514    0.465463    0.478265    0.514261    0.563289
     0.634868    0.924084    0.947504

 Minimum Search - Taking Simple RFO Step
 Searching for Lamda that Minimizes Along All modes
 Value Taken    Lamda =   0.00000000
 Step Taken.  Stepsize is  0.010782

                             Maximum     Tolerance    Cnvgd?
         Gradient           0.000039      0.000300     YES
         Displacement       0.004576      0.001200      NO
         Energy change     -0.000000      0.000001     YES

 Final energy is   -648.495723730572     


 ******************************
 **  OPTIMIZATION CONVERGED  **
 ******************************

Z-matrix Print:
$molecule
0 1
O 
C  1 1.406349
O  2 1.224989 1 122.798952
C  1 1.409394 2 120.841494 3 -7.952945 0
C  4 1.396040 1 115.962260 2 112.271100 0
H  5 1.083307 4 118.369836 1 -2.849132 0
C  5 1.396031 4 120.200649 1 177.078860 0
H  7 1.084876 5 119.722954 4 -179.985884 0
C  7 1.400610 5 119.915522 4 0.334160 0
H  9 1.084234 7 120.368318 5 179.646357 0
C  9 1.392329 7 119.649909 5 -0.458064 0
H  11 1.083497 9 121.039219 7 -179.776164 0
C  4 1.409500 1 123.092417 2 -71.016395 0
C  13 1.478988 4 126.442623 1 2.119952 0
O  14 1.239572 13 124.143124 4 176.297387 0
O  14 1.380143 13 115.576586 4 -4.799559 0
H  16 0.981832 14 108.556777 13 179.244406 0
C  2 1.496836 1 109.581004 3 -179.435816 0
H  18 1.090060 2 109.693200 1 173.857936 0
H  18 1.093906 2 110.559395 1 52.176628 0
H  18 1.094829 2 108.916210 1 -65.792845 0
$end

 Analysis of SCF Wavefunction
 
 --------------------------------------------------------------
                    Orbital Energies (a.u.)
 --------------------------------------------------------------
 
 Alpha MOs
 -- Occupied --
-19.202 -19.199 -19.152 -19.151 -10.341 -10.337 -10.276 -10.226
-10.214 -10.210 -10.208 -10.205 -10.199  -1.123  -1.114  -1.040
 -1.030  -0.882  -0.792  -0.786  -0.751  -0.684  -0.647  -0.614
 -0.592  -0.532  -0.510  -0.499  -0.486  -0.473  -0.471  -0.460
 -0.453  -0.450  -0.418  -0.409  -0.404  -0.393  -0.384  -0.369
 -0.364  -0.325  -0.314  -0.289  -0.285  -0.273  -0.260
 -- Virtual --
 -0.064  -0.020  -0.005   0.039   0.059   0.085   0.111   0.128
  0.141   0.151   0.159   0.167   0.173   0.184   0.215   0.228
  0.241   0.269   0.281   0.312   0.316   0.337   0.359   0.394
  0.492   0.499   0.512   0.533   0.534   0.542   0.565   0.574
  0.582   0.587   0.600   0.618   0.621   0.629   0.635   0.644
  0.648   0.662   0.674   0.688   0.715   0.749   0.779   0.810
  0.813   0.827   0.854   0.860   0.874   0.883   0.903   0.920
  0.932   0.948   0.954   0.962   0.984   0.987   1.014   1.033
  1.037   1.051   1.090   1.111   1.119   1.157   1.160   1.202
  1.208   1.260   1.292   1.325   1.422   1.445   1.484   1.505
  1.585   1.777   1.827   1.909   2.063   2.104
 --------------------------------------------------------------
 
          Ground-State Mulliken Net Atomic Charges

     Atom                 Charge (a.u.)
  ----------------------------------------
      1 C                    -0.159720
      2 C                    -0.114291
      3 C                    -0.116500
      4 C                    -0.118715
      5 C                    -0.458277
      6 C                     0.116643
      7 C                     0.259030
      8 O                    -0.409124
      9 O                    -0.398249
     10 O                    -0.568226
     11 C                     0.436890
     12 C                     0.533431
     13 O                    -0.552318
     14 H                     0.391446
     15 H                     0.180109
     16 H                     0.148753
     17 H                     0.141436
     18 H                     0.143889
     19 H                     0.190547
     20 H                     0.174400
     21 H                     0.178845
  ----------------------------------------
  Sum of atomic charges =     0.000000

 -----------------------------------------------------------------
                    Cartesian Multipole Moments
 -----------------------------------------------------------------
    Charge (ESU x 10^10)
                 0.0000
    Dipole Moment (Debye)
         X      -0.5824      Y       1.7342      Z      -2.0224
       Tot       2.7270
    Quadrupole Moments (Debye-Ang)
        XX     -59.5437     XY       8.3691     YY     -70.2351
        XZ       3.5583     YZ       0.5975     ZZ     -81.3552
    Octapole Moments (Debye-Ang^2)
       XXX     -20.8447    XXY       4.2267    XYY     -24.5701
       YYY       9.9426    XXZ      -6.1947    XYZ       1.5699
       YYZ     -11.4296    XZZ       0.1584    YZZ     -10.0855
       ZZZ     -13.4568
    Hexadecapole Moments (Debye-Ang^3)
      XXXX   -1529.5922   XXXY     -19.0808   XXYY    -417.3077
      XYYY      73.2752   YYYY    -971.7231   XXXZ      41.8979
      XXYZ       6.4661   XYYZ       0.6321   YYYZ      38.8412
      XXZZ    -350.3100   XYZZ     -12.6858   YYZZ    -202.7348
      XZZZ      28.2470   YZZZ      22.3958   ZZZZ    -211.6488
 -----------------------------------------------------------------
Archival summary:
1\1\gold\OPT\ProcedureUnspecified\6-31G\498\eric\SunDec2216:26:022013SunDec2216:26:022013\0\\#,OPT,ProcedureUnspecified,6-31G,\\0,1\O\C,1,1.40635\O,2,1.22499,1,122.799\C,1,1.40939,2,120.841,3,-7.95294,0\C,4,1.39604,1,115.962,2,112.271,0\H,5,1.08331,4,118.37,1,-2.84913,0\C,5,1.39603,4,120.201,1,177.079,0\H,7,1.08488,5,119.723,4,-179.986,0\C,7,1.40061,5,119.916,4,0.33416,0\H,9,1.08423,7,120.368,5,179.646,0\C,9,1.39233,7,119.65,5,-0.458064,0\H,11,1.0835,9,121.039,7,-179.776,0\C,4,1.4095,1,123.092,2,-71.0164,0\C,13,1.47899,4,126.443,1,2.11995,0\O,14,1.23957,13,124.143,4,176.297,0\O,14,1.38014,13,115.577,4,-4.79956,0\H,16,0.981832,14,108.557,13,179.244,0\C,2,1.49684,1,109.581,3,-179.436,0\H,18,1.09006,2,109.693,1,173.858,0\H,18,1.09391,2,110.559,1,52.1766,0\H,18,1.09483,2,108.916,1,-65.7928,0\\\@

 Total job time:  285.51s(wall), 284.45s(cpu) 
 Sun Dec 22 16:26:02 2013

        *************************************************************
        *                                                           *
        *  Thank you very much for using Q-Chem.  Have a nice day.  *
        *                                                           *
        *************************************************************


