
                                 *****************
                                 * O   R   C   A *
                                 *****************

           --- An Ab Initio, DFT and Semiempirical electronic structure package ---

                  #######################################################
                  #                        -***-                        #
                  #  Department of molecular theory and spectroscopy    #
                  #              Directorship: Frank Neese              #
                  # Max Planck Institute for Chemical Energy Conversion #
                  #                  D-45470 Muelheim/Ruhr              #
                  #                       Germany                       #
                  #                                                     #
                  #                  All rights reserved                #
                  #                        -***-                        #
                  #######################################################


                         Program Version 3.0.1 -  RELEASE  -


 With contributions from (in alphabetic order):
   Ute Becker             : Parallelization
   Dmytro Bykov           : SCF Hessian
   Dmitry Ganyushin       : Spin-Orbit,Spin-Spin,Magnetic field MRCI
   Andreas Hansen         : Spin unrestricted coupled pair/coupled cluster methods
   Dimitrios Liakos       : Extrapolation schemes; parallel MDCI
   Robert Izsak           : Overlap fitted RIJCOSX, COSX-SCS-MP3
   Christian Kollmar      : KDIIS, OOCD, Brueckner-CCSD(T), CCSD density
   Simone Kossmann        : Meta GGA functionals, TD-DFT gradient, OOMP2, MP2 Hessian
   Taras Petrenko         : DFT Hessian,TD-DFT gradient, ASA and ECA modules, normal mode analysis, Resonance Raman, ABS, FL, XAS/XES, NRVS
   Christoph Reimann      : Effective Core Potentials
   Michael Roemelt        : Restricted open shell CIS
   Christoph Riplinger    : Improved optimizer, TS searches, QM/MM, DLPNO-CCSD
   Barbara Sandhoefer     : DKH picture change effects
   Igor Schapiro          : Molecular dynamics
   Kantharuban Sivalingam : CASSCF convergence, NEVPT2
   Boris Wezisla          : Elementary symmetry handling
   Frank Wennmohs         : Technical directorship


 We gratefully acknowledge several colleagues who have allowed us to
 interface, adapt or use parts of their codes:
   Stefan Grimme, W. Hujo, H. Kruse, T. Risthaus : VdW corrections, initial TS optimization,
                                                   DFT functionals, gCP
   Ed Valeev                                     : LibInt (2-el integral package), F12 methods
   Garnet Chan, S. Sharma, R. Olivares           : DMRG
   Ulf Ekstrom                                   : XCFun DFT Library
   Mihaly Kallay                                 : mrcc  (arbitrary order and MRCC methods)
   Andreas Klamt, Michael Diedenhofen            : otool_cosmo (COSMO solvation model)
   Frank Weinhold                                : gennbo (NPA and NBO analysis)


 Your calculation uses the libint2 library for the computation of 2-el integrals
 For citations please refer to: http://libint.valeyev.net

 This ORCA versions uses:
   CBLAS   interface :  Fast vector & matrix operations
   LAPACKE interface :  Fast linear algebra routines
   SCALAPACK package :  Parallel linear algebra routines


Your calculation utilizes the basis: 6-31G
Cite in your paper:
H - He: W.J. Hehre, R. Ditchfield and J.A. Pople, J. Chem. Phys. 56,
Li - Ne: 2257 (1972).  Note: Li and B come from J.D. Dill and J.A.
         Pople, J. Chem. Phys. 62, 2921 (1975).
Na - Ar: M.M. Francl, W.J. Pietro, W.J. Hehre, J.S. Binkley, M.S. Gordon,
         D.J. DeFrees and J.A. Pople, J. Chem. Phys. 77, 3654 (1982)
K  - Zn: V. Rassolov, J.A. Pople, M. Ratner and T.L. Windus, J. Chem. Phys.
         (accepted, 1998)
Note: He and Ne are unpublished basis sets taken from the Gaussian program



*****************************************
The coordinations will be read from file: atoms.xyz
*****************************************


================================================================================
                                        WARNINGS
                       Please study these warnings very carefully!
================================================================================
Now building the actual basis set

WARNING: Geometry Optimization
  ===> : Switching off AutoStart
         For restart on a previous wavefunction, please use MOREAD


INFO   : the flag for use of LIBINT has been found!

================================================================================
                                       INPUT FILE
================================================================================
NAME = b3lyp.inp
|  1> ! rks b3lyp/g 6-31g opt
|  2> 
|  3> * xyzfile 0 1 atoms.xyz **                         ****END OF INPUT****
================================================================================

                       *****************************
                       * Geometry Optimization Run *
                       *****************************

Geometry optimization settings:
Update method            Update   .... BFGS
Choice of coordinates    CoordSys .... Redundant Internals
Initial Hessian          InHess   .... Almoef's Model

Convergence Tolerances:
Energy Change            TolE     ....  5.0000e-06 Eh
Max. Gradient            TolMAXG  ....  3.0000e-04 Eh/bohr
RMS Gradient             TolRMSG  ....  1.0000e-04 Eh/bohr
Max. Displacement        TolMAXD  ....  4.0000e-03 bohr
RMS Displacement         TolRMSD  ....  2.0000e-03 bohr

------------------------------------------------------------------------------
                        ORCA OPTIMIZATION COORDINATE SETUP
------------------------------------------------------------------------------

The optimization will be done in new redundant internal coordinates
Making redundant internal coordinates   ...  (new redundants) done
Evaluating the initial hessian          ...  (Almloef) done
Evaluating the coordinates              ...  done
Calculating the B-matrix                .... done
Calculating the G-matrix                .... done
Diagonalizing the G-matrix              .... done
Small eigenvalue found = 1.141e-02
Small eigenvalue found = 1.718e-02
The first mode is                       ....   36
The number of degrees of freedom        ....   57

    -----------------------------------------------------------------
                    Redundant Internal Coordinates


    -----------------------------------------------------------------
         Definition                    Initial Value    Approx d2E/dq
    -----------------------------------------------------------------
      1. B(C   2,C   0)                  1.3983         0.606025   
      2. B(C   3,C   2)                  1.3933         0.617358   
      3. B(C   3,C   1)                  1.3936         0.616603   
      4. B(C   5,C   0)                  1.4051         0.591045   
      5. B(C   6,C   5)                  1.4013         0.599360   
      6. B(C   6,C   1)                  1.4006         0.601017   
      7. B(C  10,C   5)                  1.4850         0.440740   
      8. B(C  10,O   9)                  1.3438         0.663063   
      9. B(C  10,O   7)                  1.2189         1.049304   
     10. B(C  11,O   8)                  1.2241         1.029502   
     11. B(C  11,C   4)                  1.4993         0.418150   
     12. B(O  12,C  11)                  1.3900         0.559592   
     13. B(O  12,C   6)                  1.3969         0.545512   
     14. B(H  13,O   9)                  0.9806         0.482016   
     15. B(H  14,C   0)                  1.0893         0.361000   
     16. B(H  15,C   1)                  1.0865         0.364742   
     17. B(H  16,C   2)                  1.0875         0.363477   
     18. B(H  17,C   3)                  1.0871         0.363915   
     19. B(H  18,C   4)                  1.0929         0.356274   
     20. B(H  19,C   4)                  1.0945         0.354162   
     21. B(H  20,C   4)                  1.0924         0.356901   
     22. A(C   5,C   0,H  14)          120.1951         0.350215   
     23. A(C   2,C   0,C   5)          120.8334         0.428594   
     24. A(C   2,C   0,H  14)          118.9714         0.351699   
     25. A(C   3,C   1,C   6)          119.9059         0.431220   
     26. A(C   6,C   1,H  15)          120.2616         0.351819   
     27. A(C   3,C   1,H  15)          119.8309         0.353346   
     28. A(C   3,C   2,H  16)          120.0625         0.353212   
     29. A(C   0,C   2,H  16)          119.8610         0.352106   
     30. A(C   0,C   2,C   3)          120.0764         0.431958   
     31. A(C   1,C   3,H  17)          120.0596         0.353210   
     32. A(C   1,C   3,C   2)          119.8955         0.433304   
     33. A(C   2,C   3,H  17)          120.0447         0.353284   
     34. A(H  18,C   4,H  20)          110.6839         0.289946   
     35. A(C  11,C   4,H  20)          109.8520         0.329913   
     36. A(H  18,C   4,H  19)          108.4653         0.289596   
     37. A(C  11,C   4,H  19)          109.2973         0.329493   
     38. A(H  19,C   4,H  20)          108.6176         0.289676   
     39. A(C  11,C   4,H  18)          109.8880         0.329817   
     40. A(C   0,C   5,C  10)          116.5242         0.404977   
     41. A(C   0,C   5,C   6)          118.2971         0.427745   
     42. A(C   6,C   5,C  10)          125.1773         0.405978   
     43. A(C   5,C   6,O  12)          122.6968         0.418917   
     44. A(C   1,C   6,O  12)          116.2790         0.419123   
     45. A(C   1,C   6,C   5)          120.9736         0.429030   
     46. A(C  10,O   9,H  13)          103.1438         0.369568   
     47. A(O   7,C  10,O   9)          119.9950         0.477192   
     48. A(C   5,C  10,O   9)          114.9806         0.410639   
     49. A(C   5,C  10,O   7)          125.0199         0.445853   
     50. A(C   4,C  11,O  12)          108.7588         0.394858   
     51. A(C   4,C  11,O   8)          124.3447         0.440111   
     52. A(O   8,C  11,O  12)          126.8950         0.460960   
     53. A(C   6,O  12,C  11)          112.5226         0.411157   
     54. D(C   3,C   2,C   0,H  14)    179.6708         0.025346   
     55. D(H  16,C   2,C   0,C   5)    179.8946         0.025346   
     56. D(H  16,C   2,C   0,H  14)     -0.2494         0.025346   
     57. D(C   3,C   2,C   0,C   5)     -0.1851         0.025346   
     58. D(H  17,C   3,C   1,C   6)   -179.3606         0.026291   
     59. D(C   1,C   3,C   2,H  16)   -179.7545         0.026360   
     60. D(C   2,C   3,C   1,C   6)      0.4889         0.026291   
     61. D(H  17,C   3,C   2,H  16)      0.0951         0.026360   
     62. D(H  17,C   3,C   2,C   0)   -179.8251         0.026360   
     63. D(C   2,C   3,C   1,H  15)   -179.9829         0.026291   
     64. D(H  17,C   3,C   1,H  15)      0.1676         0.026291   
     65. D(C   1,C   3,C   2,C   0)      0.3254         0.026360   
     66. D(C   6,C   5,C   0,H  14)    179.3884         0.024045   
     67. D(C  10,C   5,C   0,C   2)    178.8366         0.024045   
     68. D(C   6,C   5,C   0,C   2)     -0.7574         0.024045   
     69. D(C  10,C   5,C   0,H  14)     -1.0177         0.024045   
     70. D(O  12,C   6,C   5,C  10)     -0.6580         0.024762   
     71. D(C   1,C   6,C   5,C  10)   -177.9733         0.024762   
     72. D(C   1,C   6,C   5,C   0)      1.5823         0.024762   
     73. D(O  12,C   6,C   1,H  15)      1.5268         0.024906   
     74. D(O  12,C   6,C   1,C   3)   -178.9471         0.024906   
     75. D(O  12,C   6,C   5,C   0)    178.8976         0.024762   
     76. D(C   5,C   6,C   1,H  15)    179.0072         0.024906   
     77. D(C   5,C   6,C   1,C   3)     -1.4666         0.024906   
     78. D(O   7,C  10,O   9,H  13)      0.5890         0.032601   
     79. D(C   5,C  10,O   9,H  13)    179.8629         0.032601   
     80. D(O   9,C  10,C   5,C   6)      3.2840         0.013253   
     81. D(O   9,C  10,C   5,C   0)   -176.2786         0.013253   
     82. D(O   7,C  10,C   5,C   6)   -177.4838         0.013253   
     83. D(O   7,C  10,C   5,C   0)      2.9536         0.013253   
     84. D(O   8,C  11,C   4,H  18)   -120.5464         0.012933   
     85. D(O  12,C  11,C   4,H  20)    -62.1225         0.012933   
     86. D(O  12,C  11,C   4,H  19)    178.7967         0.012933   
     87. D(O  12,C  11,C   4,H  18)     59.8802         0.012933   
     88. D(O   8,C  11,C   4,H  20)    117.4510         0.012933   
     89. D(O   8,C  11,C   4,H  19)     -1.6299         0.012933   
     90. D(C   6,O  12,C  11,O   8)      2.8520         0.022686   
     91. D(C   6,O  12,C  11,C   4)   -177.5884         0.022686   
     92. D(C  11,O  12,C   6,C   5)     86.3237         0.021507   
     93. D(C  11,O  12,C   6,C   1)    -96.2434         0.021507   
    -----------------------------------------------------------------

Number of atoms                         .... 21
Number of degrees of freedom            .... 93

         *************************************************************
         *                GEOMETRY OPTIMIZATION CYCLE   1            *
         *************************************************************
---------------------------------
CARTESIAN COORDINATES (ANGSTROEM)
---------------------------------
  C      2.056390   -0.165430    0.397270
  C      0.688900    2.028540   -0.648160
  C      2.740710    1.023270    0.125330
  C      2.057340    2.117820   -0.400160
  C     -3.593960    1.032090    0.045890
  C      0.677380   -0.275070    0.150970
  C      0.002740    0.842340   -0.358870
  O      0.632930   -2.545260    0.933600
  O     -1.764520    1.432520    1.565710
  O     -1.248940   -1.684110    0.129750
  C      0.052780   -1.588810    0.449580
  C     -2.151990    1.128410    0.445130
  O     -1.361670    0.828320   -0.658250
  H     -1.476520   -2.601110    0.392320
  H      2.609480   -1.011730    0.802840
  H      0.157080    2.882660   -1.058230
  H      3.807770    1.091260    0.323640
  H      2.590440    3.040810   -0.614050
  H     -3.816400    0.020490   -0.302870
  H     -4.224800    1.245910    0.914400
  H     -3.812960    1.765760   -0.733320

----------------------------
CARTESIAN COORDINATES (A.U.)
----------------------------
  NO LB      ZA    FRAG    MASS        X           Y           Z
   0 C     6.0000    0    12.011          3.886013924534323         -0.312617394334593          0.750731501222896
   1 C     6.0000    0    12.011          1.301832333658350          3.833385051704616         -1.224844890962398
   2 C     6.0000    0    12.011          5.179191312499314          1.933700061057599          0.236839376364350
   3 C     6.0000    0    12.011          3.887809164361548          4.002099800941105         -0.756192809749928
   4 C     6.0000    0    12.011         -6.791600136267622          1.950367445558784          0.086719532285646
   5 C     6.0000    0    12.011          1.280062688595577         -0.519806967657719          0.285291954438091
   6 C     6.0000    0    12.011          0.005177849606944          1.591791911647227         -0.678166017680320
   7 O     8.0000    0    15.999          1.196064361942778         -4.809844339624405          1.764248318628880
   8 O     8.0000    0    15.999         -3.334459557826727          2.707070481364871          2.958763105141843
   9 O     8.0000    0    15.999         -2.360154557699608         -3.182506679398119          0.245191965876282
  10 C     6.0000    0    12.011          0.099739745348364         -3.002415778835424          0.849583075288316
  11 C     6.0000    0    12.011         -4.066671742937195          2.132385866778079          0.841173793992367
  12 O     8.0000    0    15.999         -2.573183384776551          1.565297951249651         -1.243912227653664
  13 H     1.0000    0     1.008         -2.790218431257407         -4.915385544203906          0.741377356859985
  14 H     1.0000    0     1.008          4.931202551944827         -1.911892621472148          1.517147729357338
  15 H     1.0000    0     1.008          0.296838181116350          5.447437937209435         -1.999764886699486
  16 H     1.0000    0     1.008          7.195642480961324          2.062182540902905          0.611590965982274
  17 H     1.0000    0     1.008          4.895222166354968          5.746298125289082         -1.160386332534345
  18 H     1.0000    0     1.008         -7.211950817497065          0.038720488484046         -0.572341354180729
  19 H     1.0000    0     1.008         -7.983714970590504          2.354428687513827          1.727965576857593
  20 H     1.0000    0     1.008         -7.205450159596375          3.336802818232789         -1.385773968527132

--------------------------------
INTERNAL COORDINATES (ANGSTROEM)
--------------------------------
 C      0   0   0   0.000000     0.000     0.000
 C      1   0   0   2.788630     0.000     0.000
 C      1   2   0   1.398304    59.885     0.000
 C      3   1   2   1.393260   120.076   359.837
 C      2   1   3   4.451686   103.723   195.319
 C      1   2   3   1.405117    60.949   179.978
 C      2   1   3   1.400562    59.766   180.816
 O      6   1   2   2.401718    91.994   180.042
 O      5   2   1   2.411856    48.035    63.797
 O      8   6   1   2.220178    62.035   183.121
 C      8   6   1   1.218871    30.422   182.644
 C      9   5   2   1.224057    30.882   339.065
 O     12   9   5   1.390003   126.895   179.495
 H     10   8   6   0.980625    74.755   180.134
 H      1   2   3   1.089321   178.847   352.755
 H      2   1   3   1.086513   179.842    80.621
 H      3   1   2   1.087459   119.861   179.917
 H      4   3   1   1.087132   120.045   180.175
 H      5   2   1   1.092908   110.686   310.695
 H      5   2   1   1.094526   129.382    89.110
 H      5   2   1   1.092429    86.063   200.057

---------------------------
INTERNAL COORDINATES (A.U.)
---------------------------
 C      0   0   0   0.000000     0.000     0.000
 C      1   0   0   5.269747     0.000     0.000
 C      1   2   0   2.642411    59.885     0.000
 C      3   1   2   2.632880   120.076   359.837
 C      2   1   3   8.412467   103.723   195.319
 C      1   2   3   2.655286    60.949   179.978
 C      2   1   3   2.646679    59.766   180.816
 O      6   1   2   4.538589    91.994   180.042
 O      5   2   1   4.557747    48.035    63.797
 O      8   6   1   4.195528    62.035   183.121
 C      8   6   1   2.303332    30.422   182.644
 C      9   5   2   2.313132    30.882   339.065
 O     12   9   5   2.626724   126.895   179.495
 H     10   8   6   1.853112    74.755   180.134
 H      1   2   3   2.058518   178.847   352.755
 H      2   1   3   2.053212   179.842    80.621
 H      3   1   2   2.054999   119.861   179.917
 H      4   3   1   2.054381   120.045   180.175
 H      5   2   1   2.065297   110.686   310.695
 H      5   2   1   2.068355   129.382    89.110
 H      5   2   1   2.064391    86.063   200.057

---------------------
BASIS SET INFORMATION
---------------------
There are 3 groups of distinct atoms

 Group   1 Type C   : 10s4p contracted to 3s2p pattern {631/31}
 Group   2 Type O   : 10s4p contracted to 3s2p pattern {631/31}
 Group   3 Type H   : 4s contracted to 2s pattern {31}

Atom   0C    basis set group =>   1
Atom   1C    basis set group =>   1
Atom   2C    basis set group =>   1
Atom   3C    basis set group =>   1
Atom   4C    basis set group =>   1
Atom   5C    basis set group =>   1
Atom   6C    basis set group =>   1
Atom   7O    basis set group =>   2
Atom   8O    basis set group =>   2
Atom   9O    basis set group =>   2
Atom  10C    basis set group =>   1
Atom  11C    basis set group =>   1
Atom  12O    basis set group =>   2
Atom  13H    basis set group =>   3
Atom  14H    basis set group =>   3
Atom  15H    basis set group =>   3
Atom  16H    basis set group =>   3
Atom  17H    basis set group =>   3
Atom  18H    basis set group =>   3
Atom  19H    basis set group =>   3
Atom  20H    basis set group =>   3
------------------------------------------------------------------------------
                           ORCA GTO INTEGRAL CALCULATION
------------------------------------------------------------------------------

                         BASIS SET STATISTICS AND STARTUP INFO

 # of primitive gaussian shells          ...  214
 # of primitive gaussian functions       ...  318
 # of contracted shell                   ...   81
 # of contracted basis functions         ...  133
 Highest angular momentum                ...    1
 Maximum contraction depth               ...    6
 Integral package used                   ... LIBINT
 Integral threshhold            Thresh   ...  2.500e-11
 Primitive cut-off              TCut     ...  2.500e-12


                              INTEGRAL EVALUATION

 One electron integrals                  ... done
 Pre-screening matrix                    ... done
 Shell pair data                         ... done (   0.003 sec)

-------------------------------------------------------------------------------
                                 ORCA SCF
-------------------------------------------------------------------------------

------------
SCF SETTINGS
------------
Hamiltonian:
 Density Functional     Method          .... DFT(GTOs)
 Exchange Functional    Exchange        .... B88
   X-Alpha parameter    XAlpha          ....  0.666667
   Becke's b parameter  XBeta           ....  0.004200
 Correlation Functional Correlation     .... LYP
 LDA part of GGA corr.  LDAOpt          .... VWN-3
 Gradients option       PostSCFGGA      .... off
 Hybrid DFT is turned on
   Fraction HF Exchange ScalHFX         ....  0.200000
   Scaling of DF-GGA-X  ScalDFX         ....  0.720000
   Scaling of DF-GGA-C  ScalDFC         ....  0.810000
   Scaling of DF-LDA-C  ScalLDAC        ....  1.000000
   Perturbative correction              ....  0.000000
   NL short-range parameter             ....  4.800000


General Settings:
 Integral files         IntName         .... b3lyp
 Hartree-Fock type      HFTyp           .... RHF
 Total Charge           Charge          ....    0
 Multiplicity           Mult            ....    1
 Number of Electrons    NEL             ....   94
 Basis Dimension        Dim             ....  133
 Nuclear Repulsion      ENuc            ....    782.6611615805 Eh

Convergence Acceleration:
 DIIS                   CNVDIIS         .... on
   Start iteration      DIISMaxIt       ....    12
   Startup error        DIISStart       ....  0.200000
   # of expansion vecs  DIISMaxEq       ....     5
   Bias factor          DIISBfac        ....   1.050
   Max. coefficient     DIISMaxC        ....  10.000
 Newton-Raphson         CNVNR           .... off
 SOSCF                  CNVSOSCF        .... on
   Start iteration      SOSCFMaxIt      ....   150
   Startup grad/error   SOSCFStart      ....  0.003300
 Level Shifting         CNVShift        .... on
   Level shift para.    LevelShift      ....    0.2500
   Turn off err/grad.   ShiftErr        ....    0.0010
 Zerner damping         CNVZerner       .... off
 Static damping         CNVDamp         .... on
   Fraction old density DampFac         ....    0.7000
   Max. Damping (<1)    DampMax         ....    0.9800
   Min. Damping (>=0)   DampMin         ....    0.0000
   Turn off err/grad.   DampErr         ....    0.1000
 Fernandez-Rico         CNVRico         .... off

SCF Procedure:
 Maximum # iterations   MaxIter         ....   125
 SCF integral mode      SCFMode         .... Direct
   Integral package                     .... LIBINT
 Reset frequeny         DirectResetFreq ....    20
 Integral Threshold     Thresh          ....  2.500e-11 Eh
 Primitive CutOff       TCut            ....  2.500e-12 Eh

Convergence Tolerance:
 Convergence Check Mode ConvCheckMode   .... Total+1el-Energy
 Energy Change          TolE            ....  1.000e-08 Eh
 1-El. energy change                    ....  1.000e-05 Eh
 Orbital Gradient       TolG            ....  1.000e-05
 Orbital Rotation angle TolX            ....  1.000e-05
 DIIS Error             TolErr          ....  5.000e-07


Diagonalization of the overlap matrix:
Smallest eigenvalue                        ... 5.374e-04
Time for diagonalization                   ...    0.070 sec
Threshold for overlap eigenvalues          ... 1.000e-08
Number of eigenvalues below threshold      ... 0
Time for construction of square roots      ...    0.002 sec
Total time needed                          ...    0.073 sec

-------------------
DFT GRID GENERATION
-------------------

General Integration Accuracy     IntAcc      ...  4.340
Radial Grid Type                 RadialGrid  ... Gauss-Chebyshev
Angular Grid (max. acc.)         AngularGrid ... Lebedev-110
Angular grid pruning method      GridPruning ... 3 (G Style)
Weight generation scheme         WeightScheme... Becke
Basis function cutoff            BFCut       ...    1.0000e-11
Integration weight cutoff        WCut        ...    1.0000e-14
Grids for H and He will be reduced by one unit

# of grid points (after initial pruning)     ...  28120 (   0.0 sec)
# of grid points (after weights+screening)   ...  25848 (   0.3 sec)
nearest neighbour list constructed           ...    0.0 sec
Grid point re-assignment to atoms done       ...    0.0 sec
Grid point division into batches done        ...    0.0 sec
Reduced shell lists constructed in    0.7 sec

Total number of grid points                  ...    25848
Total number of batches                      ...      414
Average number of points per batch           ...       62
Average number of grid points per atom       ...     1231
Average number of shells per batch           ...    50.68 (62.56%)
Average number of basis functions per batch  ...    89.64 (67.40%)
Average number of large shells per batch     ...    36.34 (71.71%)
Average number of large basis fcns per batch ...    65.84 (73.45%)
Maximum spatial batch extension              ...  17.55, 19.49, 25.60 au
Average spatial batch extension              ...   3.29,  3.47,  3.93 au

Time for grid setup =    0.947 sec

------------------------------
INITIAL GUESS: MODEL POTENTIAL
------------------------------
Loading Hartree-Fock densities                     ... done
Calculating cut-offs                               ... done
Setting up the integral package                    ... done
Initializing the effective Hamiltonian             ... done
Starting the Coulomb interaction                   ... done (   0.7 sec)
Reading the grid                                   ... done
Mapping shells                                     ... done
Starting the XC term evaluation                    ... done (   0.7 sec)
  promolecular density results
     # of electrons  =     93.995068301
     EX              =    -81.421450878
     EC              =     -3.253784450
     EX+EC           =    -84.675235328
Transforming the Hamiltonian                       ... done (   0.0 sec)
Diagonalizing the Hamiltonian                      ... done (   0.0 sec)
Back transforming the eigenvectors                 ... done (   0.0 sec)
Now organizing SCF variables                       ... done
                      ------------------
                      INITIAL GUESS DONE (   2.5 sec)
                      ------------------
--------------
SCF ITERATIONS
--------------
ITER       Energy         Delta-E        Max-DP      RMS-DP      [F,P]     Damp
               ***  Starting incremental Fock matrix formation  ***
  0   -648.0746690314   0.000000000000 0.11258421  0.00490721  0.2714410 0.7000
  1   -648.2766903208  -0.202021289359 0.06154757  0.00283872  0.0973933 0.7000
                               ***Turning on DIIS***
  2   -648.3423118860  -0.065621565173 0.06434474  0.00376909  0.0420455 0.0000
  3   -648.4645945265  -0.122282640517 0.03888905  0.00187961  0.0546861 0.0000
  4   -648.4836127948  -0.019018268357 0.01264351  0.00067916  0.0211082 0.0000
  5   -648.4863925098  -0.002779714999 0.00327727  0.00019944  0.0035296 0.0000
                      *** Initiating the SOSCF procedure ***
                           *** Shutting down DIIS ***
                      *** Re-Reading the Fockian *** 
                      *** Removing any level shift *** 
ITER      Energy       Delta-E        Grad      Rot      Max-DP    RMS-DP
  6   -648.48648372  -0.0000912150  0.000392  0.000392  0.001529  0.000064
               *** Restarting incremental Fock matrix formation ***
  7   -648.48649725  -0.0000135282  0.000148  0.000721  0.000695  0.000032
  8   -648.48649736  -0.0000001114  0.000157  0.000287  0.000375  0.000016
  9   -648.48649831  -0.0000009425  0.000111  0.000254  0.000336  0.000010
 10   -648.48649821   0.0000000924  0.000122  0.000137  0.000217  0.000006
 11   -648.48649844  -0.0000002256  0.000016  0.000043  0.000086  0.000003
 12   -648.48649842   0.0000000156  0.000024  0.000026  0.000051  0.000002
 13   -648.48649845  -0.0000000270  0.000005  0.000016  0.000023  0.000001
 14   -648.48649845   0.0000000007  0.000010  0.000011  0.000016  0.000000
                  ***Gradient check signals convergence***
              ***Rediagonalizing the Fockian in SOSCF/NRSCF***

               *****************************************************
               *                     SUCCESS                       *
               *           SCF CONVERGED AFTER  15 CYCLES          *
               *****************************************************

Setting up the final grid:

General Integration Accuracy     IntAcc      ...  4.670
Radial Grid Type                 RadialGrid  ... Gauss-Chebyshev
Angular Grid (max. acc.)         AngularGrid ... Lebedev-302
Angular grid pruning method      GridPruning ... 3 (G Style)
Weight generation scheme         WeightScheme... Becke
Basis function cutoff            BFCut       ...    1.0000e-11
Integration weight cutoff        WCut        ...    1.0000e-14
Grids for H and He will be reduced by one unit

# of grid points (after initial pruning)     ... 107908 (   0.1 sec)
# of grid points (after weights+screening)   ...  97468 (   1.0 sec)
nearest neighbour list constructed           ...    0.0 sec
Grid point re-assignment to atoms done       ...    0.0 sec
Grid point division into batches done        ...    0.5 sec
Reduced shell lists constructed in    2.8 sec

Total number of grid points                  ...    97468
Total number of batches                      ...     1534
Average number of points per batch           ...       63
Average number of grid points per atom       ...     4641
Average number of shells per batch           ...    45.96 (56.74%)
Average number of basis functions per batch  ...    81.63 (61.38%)
Average number of large shells per batch     ...    32.33 (70.34%)
Average number of large basis fcns per batch ...    58.81 (72.05%)
Maximum spatial batch extension              ...  18.32, 19.16, 21.17 au
Average spatial batch extension              ...   2.30,  2.39,  2.56 au

Final grid set up in    3.9 sec
Final integration                            ... done (   2.6 sec)
Change in XC energy                          ...    -0.000024359
Integrated number of electrons               ...    93.999997540
Previous integrated no of electrons          ...    94.000873294

----------------
TOTAL SCF ENERGY
----------------

Total Energy       :         -648.48652281 Eh          -17646.21540 eV

Components:
Nuclear Repulsion  :          782.66116158 Eh           21297.29294 eV
Electronic Energy  :        -1431.14768439 Eh          -38943.50834 eV

One Electron Energy:        -2436.35794682 Eh          -66296.67019 eV
Two Electron Energy:         1005.21026243 Eh           27353.16185 eV

Virial components:
Potential Energy   :        -1293.65111607 Eh          -35202.03651 eV
Kinetic Energy     :          645.16459326 Eh           17555.82110 eV
Virial Ratio       :            2.00514896


DFT components:
N(Alpha)           :       46.999998770058 electrons
N(Beta)            :       46.999998770058 electrons
N(Total)           :       93.999997540116 electrons
E(X)               :      -65.540267517018 Eh       
E(C)               :       -4.180973344773 Eh       
E(XC)              :      -69.721240861791 Eh       

---------------
SCF CONVERGENCE
---------------

  Last Energy change         ...   -9.9681e-10  Tolerance :   1.0000e-08
  Last MAX-Density change    ...    5.9162e-06  Tolerance :   1.0000e-07
  Last RMS-Density change    ...    2.1843e-07  Tolerance :   5.0000e-09
  Last Orbital Gradient      ...    9.6204e-07  Tolerance :   1.0000e-05
  Last Orbital Rotation      ...    3.0797e-06  Tolerance :   1.0000e-05

             **** THE GBW FILE WAS UPDATED (b3lyp.gbw) ****
             **** DENSITY FILE WAS UPDATED (b3lyp.scfp.tmp) ****
             **** ENERGY FILE WAS UPDATED (b3lyp.en.tmp) ****
----------------
ORBITAL ENERGIES
----------------

  NO   OCC          E(Eh)            E(eV) 
   0   2.0000     -19.207992      -522.6760 
   1   2.0000     -19.204671      -522.5857 
   2   2.0000     -19.154170      -521.2115 
   3   2.0000     -19.150478      -521.1110 
   4   2.0000     -10.339365      -281.3484 
   5   2.0000     -10.335772      -281.2507 
   6   2.0000     -10.273404      -279.5535 
   7   2.0000     -10.225054      -278.2379 
   8   2.0000     -10.212103      -277.8854 
   9   2.0000     -10.211101      -277.8582 
  10   2.0000     -10.208726      -277.7936 
  11   2.0000     -10.205296      -277.7002 
  12   2.0000     -10.193345      -277.3750 
  13   2.0000      -1.145806       -31.1790 
  14   2.0000      -1.129932       -30.7470 
  15   2.0000      -1.049673       -28.5630 
  16   2.0000      -1.041303       -28.3353 
  17   2.0000      -0.883530       -24.0421 
  18   2.0000      -0.794044       -21.6070 
  19   2.0000      -0.784848       -21.3568 
  20   2.0000      -0.748229       -20.3603 
  21   2.0000      -0.683649       -18.6030 
  22   2.0000      -0.648605       -17.6495 
  23   2.0000      -0.614279       -16.7154 
  24   2.0000      -0.591145       -16.0859 
  25   2.0000      -0.533129       -14.5072 
  26   2.0000      -0.513455       -13.9718 
  27   2.0000      -0.497708       -13.5433 
  28   2.0000      -0.493178       -13.4201 
  29   2.0000      -0.480050       -13.0628 
  30   2.0000      -0.475726       -12.9452 
  31   2.0000      -0.465731       -12.6732 
  32   2.0000      -0.460927       -12.5425 
  33   2.0000      -0.451852       -12.2955 
  34   2.0000      -0.413695       -11.2572 
  35   2.0000      -0.410517       -11.1707 
  36   2.0000      -0.407047       -11.0763 
  37   2.0000      -0.396367       -10.7857 
  38   2.0000      -0.382386       -10.4053 
  39   2.0000      -0.372234       -10.1290 
  40   2.0000      -0.368636       -10.0311 
  41   2.0000      -0.327505        -8.9119 
  42   2.0000      -0.315834        -8.5943 
  43   2.0000      -0.290921        -7.9164 
  44   2.0000      -0.284126        -7.7315 
  45   2.0000      -0.275572        -7.4987 
  46   2.0000      -0.265601        -7.2274 
  47   0.0000      -0.060157        -1.6370 
  48   0.0000      -0.019596        -0.5332 
  49   0.0000      -0.008613        -0.2344 
  50   0.0000       0.043257         1.1771 
  51   0.0000       0.063861         1.7378 
  52   0.0000       0.084908         2.3105 
  53   0.0000       0.110351         3.0028 
  54   0.0000       0.131852         3.5879 
  55   0.0000       0.138753         3.7756 
  56   0.0000       0.151095         4.1115 
  57   0.0000       0.159743         4.3468 
  58   0.0000       0.167300         4.5525 
  59   0.0000       0.175140         4.7658 
  60   0.0000       0.185771         5.0551 
  61   0.0000       0.217967         5.9312 
  62   0.0000       0.234145         6.3714 
  63   0.0000       0.242914         6.6100 
  64   0.0000       0.261651         7.1199 
  65   0.0000       0.284467         7.7407 
  66   0.0000       0.316404         8.6098 
  67   0.0000       0.319641         8.6979 
  68   0.0000       0.346362         9.4250 
  69   0.0000       0.362176         9.8553 
  70   0.0000       0.393393        10.7048 
  71   0.0000       0.491272        13.3682 
  72   0.0000       0.498525        13.5655 
  73   0.0000       0.508308        13.8318 
  74   0.0000       0.531521        14.4634 
  75   0.0000       0.539472        14.6798 
  76   0.0000       0.550752        14.9867 
  77   0.0000       0.564739        15.3673 
  78   0.0000       0.577808        15.7230 
  79   0.0000       0.582754        15.8575 
  80   0.0000       0.589059        16.0291 
  81   0.0000       0.600970        16.3532 
  82   0.0000       0.612404        16.6644 
  83   0.0000       0.621338        16.9075 
  84   0.0000       0.628884        17.1128 
  85   0.0000       0.632616        17.2143 
  86   0.0000       0.645112        17.5544 
  87   0.0000       0.650357        17.6971 
  88   0.0000       0.662567        18.0294 
  89   0.0000       0.682202        18.5636 
  90   0.0000       0.690414        18.7871 
  91   0.0000       0.733113        19.9490 
  92   0.0000       0.757763        20.6198 
  93   0.0000       0.783070        21.3084 
  94   0.0000       0.802689        21.8423 
  95   0.0000       0.814046        22.1513 
  96   0.0000       0.823019        22.3955 
  97   0.0000       0.848948        23.1010 
  98   0.0000       0.853736        23.2313 
  99   0.0000       0.877686        23.8830 
 100   0.0000       0.887972        24.1629 
 101   0.0000       0.902422        24.5561 
 102   0.0000       0.924445        25.1554 
 103   0.0000       0.931274        25.3413 
 104   0.0000       0.947241        25.7757 
 105   0.0000       0.951578        25.8938 
 106   0.0000       0.961858        26.1735 
 107   0.0000       0.978424        26.6243 
 108   0.0000       0.978901        26.6372 
 109   0.0000       0.995637        27.0927 
 110   0.0000       1.022085        27.8123 
 111   0.0000       1.035014        28.1642 
 112   0.0000       1.050019        28.5725 
 113   0.0000       1.082128        29.4462 
 114   0.0000       1.109868        30.2010 
 115   0.0000       1.121169        30.5086 
 116   0.0000       1.130582        30.7647 
 117   0.0000       1.174025        31.9468 
 118   0.0000       1.202365        32.7180 
 119   0.0000       1.209619        32.9154 
 120   0.0000       1.248007        33.9600 
 121   0.0000       1.289414        35.0867 
 122   0.0000       1.327849        36.1326 
 123   0.0000       1.411711        38.4146 
 124   0.0000       1.439872        39.1809 
 125   0.0000       1.461572        39.7714 
 126   0.0000       1.486573        40.4517 
 127   0.0000       1.572736        42.7963 
 128   0.0000       1.777533        48.3691 
 129   0.0000       1.817692        49.4619 
 130   0.0000       1.911157        52.0052 
 131   0.0000       2.083404        56.6923 
 132   0.0000       2.116591        57.5954 

                    ********************************
                    * MULLIKEN POPULATION ANALYSIS *
                    ********************************

-----------------------
MULLIKEN ATOMIC CHARGES
-----------------------
   0 C :   -0.160582
   1 C :   -0.099409
   2 C :   -0.118905
   3 C :   -0.116045
   4 C :   -0.456642
   5 C :    0.129938
   6 C :    0.226087
   7 O :   -0.395225
   8 O :   -0.390898
   9 O :   -0.537410
  10 C :    0.400118
  11 C :    0.501756
  12 O :   -0.512621
  13 H :    0.386135
  14 H :    0.178225
  15 H :    0.146287
  16 H :    0.142633
  17 H :    0.143289
  18 H :    0.185615
  19 H :    0.172682
  20 H :    0.174973
Sum of atomic charges:    0.0000000

--------------------------------
MULLIKEN REDUCED ORBITAL CHARGES
--------------------------------
  0 C s       :     3.228483  s :     3.228483
      pz      :     0.957832  p :     2.932099
      px      :     0.971577
      py      :     1.002689
  1 C s       :     3.194758  s :     3.194758
      pz      :     1.010743  p :     2.904651
      px      :     0.935485
      py      :     0.958423
  2 C s       :     3.198933  s :     3.198933
      pz      :     0.988317  p :     2.919973
      px      :     1.011198
      py      :     0.920458
  3 C s       :     3.202512  s :     3.202512
      pz      :     0.961223  p :     2.913533
      px      :     0.952384
      py      :     0.999926
  4 C s       :     3.340164  s :     3.340164
      pz      :     1.086083  p :     3.116478
      px      :     0.930559
      py      :     1.099835
  5 C s       :     3.140342  s :     3.140342
      pz      :     1.021465  p :     2.729720
      px      :     0.861243
      py      :     0.847012
  6 C s       :     3.143166  s :     3.143166
      pz      :     0.975839  p :     2.630746
      px      :     0.636403
      py      :     1.018504
  7 O s       :     3.930728  s :     3.930728
      pz      :     1.402253  p :     4.464497
      px      :     1.628693
      py      :     1.433552
  8 O s       :     3.950862  s :     3.950862
      pz      :     1.336884  p :     4.440036
      px      :     1.719003
      py      :     1.384150
  9 O s       :     3.924535  s :     3.924535
      pz      :     1.763899  p :     4.612875
      px      :     1.391951
      py      :     1.457026
 10 C s       :     2.950837  s :     2.950837
      pz      :     0.849520  p :     2.649045
      px      :     0.781593
      py      :     1.017932
 11 C s       :     3.009784  s :     3.009784
      pz      :     0.735562  p :     2.488461
      px      :     0.937753
      py      :     0.815145
 12 O s       :     3.951216  s :     3.951216
      pz      :     1.544254  p :     4.561405
      px      :     1.270060
      py      :     1.747091
 13 H s       :     0.613865  s :     0.613865
 14 H s       :     0.821775  s :     0.821775
 15 H s       :     0.853713  s :     0.853713
 16 H s       :     0.857367  s :     0.857367
 17 H s       :     0.856711  s :     0.856711
 18 H s       :     0.814385  s :     0.814385
 19 H s       :     0.827318  s :     0.827318
 20 H s       :     0.825027  s :     0.825027


                     *******************************
                     * LOEWDIN POPULATION ANALYSIS *
                     *******************************

----------------------
LOEWDIN ATOMIC CHARGES
----------------------
   0 C :   -0.070505
   1 C :   -0.120007
   2 C :   -0.114597
   3 C :   -0.086927
   4 C :   -0.344927
   5 C :   -0.082740
   6 C :    0.132978
   7 O :   -0.286981
   8 O :   -0.263089
   9 O :   -0.308043
  10 C :    0.236300
  11 C :    0.264465
  12 O :   -0.207226
  13 H :    0.303313
  14 H :    0.143698
  15 H :    0.132966
  16 H :    0.125480
  17 H :    0.125708
  18 H :    0.145627
  19 H :    0.133916
  20 H :    0.140589

-------------------------------
LOEWDIN REDUCED ORBITAL CHARGES
-------------------------------
  0 C s       :     2.944460  s :     2.944460
      pz      :     0.972820  p :     3.126046
      px      :     1.064112
      py      :     1.089114
  1 C s       :     2.946211  s :     2.946211
      pz      :     1.024527  p :     3.173795
      px      :     1.082334
      py      :     1.066934
  2 C s       :     2.941091  s :     2.941091
      pz      :     1.010638  p :     3.173506
      px      :     1.094394
      py      :     1.068474
  3 C s       :     2.943870  s :     2.943870
      pz      :     0.980153  p :     3.143057
      px      :     1.078983
      py      :     1.083921
  4 C s       :     2.996521  s :     2.996521
      pz      :     1.145122  p :     3.348407
      px      :     1.058182
      py      :     1.145103
  5 C s       :     2.914282  s :     2.914282
      pz      :     1.049665  p :     3.168458
      px      :     1.078042
      py      :     1.040751
  6 C s       :     2.895908  s :     2.895908
      pz      :     1.001958  p :     2.971114
      px      :     0.873696
      py      :     1.095460
  7 O s       :     3.626259  s :     3.626259
      pz      :     1.430491  p :     4.660723
      px      :     1.704258
      py      :     1.525974
  8 O s       :     3.635446  s :     3.635446
      pz      :     1.449018  p :     4.627643
      px      :     1.779505
      py      :     1.399120
  9 O s       :     3.586650  s :     3.586650
      pz      :     1.769693  p :     4.721392
      px      :     1.452346
      py      :     1.499353
 10 C s       :     2.889417  s :     2.889417
      pz      :     0.879238  p :     2.874283
      px      :     0.938483
      py      :     1.056561
 11 C s       :     2.911801  s :     2.911801
      pz      :     0.970912  p :     2.823735
      px      :     1.018427
      py      :     0.834396
 12 O s       :     3.546785  s :     3.546785
      pz      :     1.589478  p :     4.660441
      px      :     1.309060
      py      :     1.761902
 13 H s       :     0.696687  s :     0.696687
 14 H s       :     0.856302  s :     0.856302
 15 H s       :     0.867034  s :     0.867034
 16 H s       :     0.874520  s :     0.874520
 17 H s       :     0.874292  s :     0.874292
 18 H s       :     0.854373  s :     0.854373
 19 H s       :     0.866084  s :     0.866084
 20 H s       :     0.859411  s :     0.859411


                      *****************************
                      * MAYER POPULATION ANALYSIS *
                      *****************************

  NA   - Mulliken gross atomic population
  ZA   - Total nuclear charge
  QA   - Mulliken gross atomic charge
  VA   - Mayer's total valence
  BVA  - Mayer's bonded valence
  FA   - Mayer's free valence

  ATOM       NA         ZA         QA         VA         BVA        FA
  0 C      6.1606     6.0000    -0.1606     3.8912     3.8912    -0.0000
  1 C      6.0994     6.0000    -0.0994     3.8579     3.8579    -0.0000
  2 C      6.1189     6.0000    -0.1189     3.8675     3.8675     0.0000
  3 C      6.1160     6.0000    -0.1160     3.8896     3.8896    -0.0000
  4 C      6.4566     6.0000    -0.4566     3.7308     3.7308     0.0000
  5 C      5.8701     6.0000     0.1299     3.6839     3.6839    -0.0000
  6 C      5.7739     6.0000     0.2261     3.7821     3.7821    -0.0000
  7 O      8.3952     8.0000    -0.3952     2.0548     2.0548    -0.0000
  8 O      8.3909     8.0000    -0.3909     2.0433     2.0433     0.0000
  9 O      8.5374     8.0000    -0.5374     1.8316     1.8316    -0.0000
 10 C      5.5999     6.0000     0.4001     3.8824     3.8824    -0.0000
 11 C      5.4982     6.0000     0.5018     3.8022     3.8022     0.0000
 12 O      8.5126     8.0000    -0.5126     1.7955     1.7955     0.0000
 13 H      0.6139     1.0000     0.3861     0.8422     0.8422    -0.0000
 14 H      0.8218     1.0000     0.1782     0.9417     0.9417     0.0000
 15 H      0.8537     1.0000     0.1463     0.9427     0.9427    -0.0000
 16 H      0.8574     1.0000     0.1426     0.9417     0.9417    -0.0000
 17 H      0.8567     1.0000     0.1433     0.9408     0.9408    -0.0000
 18 H      0.8144     1.0000     0.1856     0.9336     0.9336     0.0000
 19 H      0.8273     1.0000     0.1727     0.9359     0.9359     0.0000
 20 H      0.8250     1.0000     0.1750     0.9335     0.9335     0.0000

  Mayer bond orders larger than 0.1
B(  0-C ,  2-C ) :   1.4363 B(  0-C ,  5-C ) :   1.3716 B(  0-C , 14-H ) :   0.9128 
B(  1-C ,  3-C ) :   1.4308 B(  1-C ,  6-C ) :   1.4122 B(  1-C , 15-H ) :   0.9233 
B(  2-C ,  3-C ) :   1.4274 B(  2-C , 16-H ) :   0.9306 B(  3-C , 17-H ) :   0.9275 
B(  4-C , 11-C ) :   0.9471 B(  4-C , 18-H ) :   0.9295 B(  4-C , 19-H ) :   0.9439 
B(  4-C , 20-H ) :   0.9319 B(  5-C ,  6-C ) :   1.3290 B(  5-C , 10-C ) :   0.9203 
B(  6-C , 12-O ) :   0.8237 B(  7-O , 10-C ) :   1.8823 B(  8-O , 11-C ) :   1.9140 
B(  9-O , 10-C ) :   1.0003 B(  9-O , 13-H ) :   0.7762 B( 11-C , 12-O ) :   0.8963 


-------
TIMINGS
-------

Total SCF time: 0 days 0 hours 2 min 31 sec 

Total time                  ....     151.811 sec
Sum of individual times     ....     155.184 sec  (102.2%)

Fock matrix formation       ....     147.666 sec  ( 97.3%)
  Coulomb formation         ....     134.462 sec  ( 91.1% of F)
  XC integration            ....      13.192 sec  (  8.9% of F)
    Basis function eval.    ....       6.384 sec  ( 48.4% of XC)
    Density eval.           ....       2.706 sec  ( 20.5% of XC)
    XC-Functional eval.     ....       1.143 sec  (  8.7% of XC)
    XC-Potential eval.      ....       2.616 sec  ( 19.8% of XC)
Diagonalization             ....       0.075 sec  (  0.0%)
Density matrix formation    ....       0.012 sec  (  0.0%)
Population analysis         ....       0.021 sec  (  0.0%)
Initial guess               ....       2.469 sec  (  1.6%)
Orbital Transformation      ....       0.000 sec  (  0.0%)
Orbital Orthonormalization  ....       0.000 sec  (  0.0%)
DIIS solution               ....       0.017 sec  (  0.0%)
SOSCF solution              ....       0.098 sec  (  0.1%)
Grid generation             ....       4.825 sec  (  3.2%)

-------------------------   --------------------
FINAL SINGLE POINT ENERGY      -648.486522811417
-------------------------   --------------------

------------------------------------------------------------------------------
                         ORCA SCF GRADIENT CALCULATION
------------------------------------------------------------------------------

Gradient of the Kohn-Sham DFT energy:
Kohn-Sham wavefunction type      ... RKS
Hartree-Fock exchange scaling    ...    0.200
Number of operators              ...    1
Number of atoms                  ...   21
Basis set dimensions             ...  133
Integral neglect threshold       ... 2.5e-11
Integral primitive cutoff        ... 2.5e-12

Nuclear repulsion gradient       ... done
One Electron Gradient            ... done
Pre-screening matrix             ... done
Starting the two electron gradient:
Two electron gradient done
Exchange-correlation gradient    ... done

------------------
CARTESIAN GRADIENT
------------------

   1   C   :   -0.009231046   -0.004346757   -0.000170147
   2   C   :    0.000416839    0.000310655   -0.000955898
   3   C   :   -0.004015533    0.006384870   -0.003314486
   4   C   :   -0.001070158   -0.004134344    0.001631437
   5   C   :    0.005116804   -0.001384414   -0.007849010
   6   C   :   -0.001956242    0.008145645   -0.002987001
   7   C   :   -0.022868956   -0.008776086    0.013513880
   8   O   :   -0.021523358    0.025605664   -0.014316307
   9   O   :   -0.014240303    0.000726035    0.000472333
  10   O   :    0.023907881    0.007307751    0.002303487
  11   C   :   -0.013227891   -0.037192598    0.009128898
  12   C   :    0.039808629    0.001159169    0.000734841
  13   O   :   -0.004049882   -0.003302986   -0.011151321
  14   H   :    0.012735076    0.003560421    0.002254125
  15   H   :    0.006183846   -0.000498812    0.001597123
  16   H   :    0.002044850    0.003575131   -0.000936915
  17   H   :    0.002023270    0.000699958    0.000106780
  18   H   :    0.001324738    0.000984280    0.000118789
  19   H   :   -0.000532340   -0.001195470    0.004543028
  20   H   :   -0.002057816   -0.000319407    0.001236399
  21   H   :    0.001211592    0.002691296    0.004039963

Norm of the cartesian gradient     ...    0.083561409
RMS gradient                       ...    0.010527748
MAX gradient                       ...    0.039808629

-------
TIMINGS
-------

Total SCF gradient time            ...       49.292 sec

One electron gradient       ....       0.478 sec  (  1.0%)
Prescreening matrices       ....       0.117 sec  (  0.2%)
Two electron gradient       ....      30.950 sec  ( 62.8%)
XC gradient                 ....      17.480 sec  ( 35.5%)
------------------------------------------------------------------------------
                         ORCA GEOMETRY RELAXATION STEP
------------------------------------------------------------------------------

Reading the OPT-File                    .... done
Getting information on internals        .... done
Copying old internal coords+grads       .... done
Making the new internal coordinates     .... (new redundants).... done
Validating the new internal coordinates .... (new redundants).... done
Calculating the B-matrix                .... done
Calculating the G,G- and P matrices     .... done
Transforming gradient to internals      .... done
Projecting the internal gradient        .... done
Number of atoms                         ....  21
Number of internal coordinates          ....  93
Current Energy                          ....  -648.486522811 Eh
Current gradient norm                   ....     0.083561409 Eh/bohr
Maximum allowed component of the step   ....  0.300
Current trust radius                    ....  0.300
Evaluating the initial hessian          ....  (Almloef) done
Projecting the Hessian                  .... done
Forming the augmented Hessian           .... done
Diagonalizing the augmented Hessian     .... done
Last element of RFO vector              ....  0.977710216
Lowest eigenvalues of augmented Hessian:
 -0.012825341  0.012933945  0.013368155  0.015495674  0.019280103
Length of the computed step             ....  0.214745515
The final length of the internal step   ....  0.214745515
Converting the step to cartesian space:
 Initial RMS(Int)=    0.0222680725
Transforming coordinates:
 Iter   0:  RMS(Cart)=    0.1213347269 RMS(Int)=    1.1264713466
 Iter   1:  RMS(Cart)=    0.0075504687 RMS(Int)=    0.0030732077
 Iter   2:  RMS(Cart)=    0.0006289228 RMS(Int)=    0.0002122924
 Iter   3:  RMS(Cart)=    0.0000860558 RMS(Int)=    0.0000314190
 Iter   4:  RMS(Cart)=    0.0000072177 RMS(Int)=    0.0000031822
 Iter   5:  RMS(Cart)=    0.0000009371 RMS(Int)=    0.0000003508
 Iter   6:  RMS(Cart)=    0.0000000834 RMS(Int)=    0.0000000431
done
Storing new coordinates                 .... done

                                .--------------------.
          ----------------------|Geometry convergence|---------------------
          Item                value                 Tolerance   Converged
          -----------------------------------------------------------------
          RMS gradient        0.00843421            0.00010000      NO
          MAX gradient        0.03953792            0.00030000      NO
          RMS step            0.02226807            0.00200000      NO
          MAX step            0.09325375            0.00400000      NO
          ....................................................
          Max(Bonds)      0.0292      Max(Angles)    5.34
          Max(Dihed)        3.93      Max(Improp)    0.00
          -----------------------------------------------------------------

The optimization has not yet converged - more geometry cycles are needed


    ---------------------------------------------------------------------------
                         Redundant Internal Coordinates
                            (Angstroem and degrees)

        Definition                    Value    dE/dq     Step     New-Value
    ----------------------------------------------------------------------------
     1. B(C   2,C   0)                1.3983  0.003595 -0.0031    1.3952   
     2. B(C   3,C   2)                1.3933 -0.005844  0.0049    1.3982   
     3. B(C   3,C   1)                1.3936 -0.003406  0.0029    1.3965   
     4. B(C   5,C   0)                1.4051 -0.001381  0.0012    1.4063   
     5. B(C   6,C   5)                1.4013 -0.006299  0.0054    1.4067   
     6. B(C   6,C   1)                1.4006  0.004073 -0.0035    1.3971   
     7. B(C  10,C   5)                1.4850 -0.000290  0.0003    1.4853   
     8. B(C  10,O   9)                1.3438 -0.037352  0.0292    1.3731   
     9. B(C  10,O   7)                1.2189 -0.036023  0.0179    1.2368   
    10. B(C  11,O   8)                1.2241 -0.003896  0.0020    1.2260   
    11. B(C  11,C   4)                1.4993 -0.004103  0.0050    1.5044   
    12. B(O  12,C  11)                1.3900 -0.013785  0.0127    1.4027   
    13. B(O  12,C   6)                1.3969 -0.022939  0.0217    1.4187   
    14. B(H  13,O   9)                0.9806 -0.005682  0.0061    0.9867   
    15. B(H  14,C   0)                1.0893  0.004121 -0.0058    1.0835   
    16. B(H  15,C   1)                1.0865  0.002164 -0.0030    1.0835   
    17. B(H  16,C   2)                1.0875  0.002049 -0.0029    1.0846   
    18. B(H  17,C   3)                1.0871  0.001463 -0.0021    1.0851   
    19. B(H  18,C   4)                1.0929 -0.000232  0.0003    1.0932   
    20. B(H  19,C   4)                1.0945  0.002103 -0.0030    1.0915   
    21. B(H  20,C   4)                1.0924 -0.001318  0.0019    1.0943   
    22. A(C   5,C   0,H  14)          120.20  0.006137   -0.94    119.25   
    23. A(C   2,C   0,C   5)          120.83 -0.002179    0.29    121.13   
    24. A(C   2,C   0,H  14)          118.97 -0.003958    0.65    119.62   
    25. A(C   3,C   1,C   6)          119.91 -0.001188    0.18    120.08   
    26. A(C   6,C   1,H  15)          120.26  0.004319   -0.67    119.59   
    27. A(C   3,C   1,H  15)          119.83 -0.003134    0.50    120.33   
    28. A(C   3,C   2,H  16)          120.06 -0.001565    0.23    120.29   
    29. A(C   0,C   2,H  16)          119.86 -0.000271    0.02    119.89   
    30. A(C   0,C   2,C   3)          120.08  0.001836   -0.25    119.83   
    31. A(C   1,C   3,H  17)          120.06  0.000761   -0.12    119.94   
    32. A(C   1,C   3,C   2)          119.90  0.000026    0.01    119.90   
    33. A(C   2,C   3,H  17)          120.04 -0.000787    0.12    120.16   
    34. A(H  18,C   4,H  20)          110.68  0.004433   -1.34    109.34   
    35. A(C  11,C   4,H  20)          109.85 -0.002402    0.29    110.14   
    36. A(H  18,C   4,H  19)          108.47 -0.002060    0.66    109.13   
    37. A(C  11,C   4,H  19)          109.30  0.000708    0.12    109.42   
    38. A(H  19,C   4,H  20)          108.62 -0.000823    0.43    109.05   
    39. A(C  11,C   4,H  18)          109.89  0.000114   -0.13    109.75   
    40. A(C   0,C   5,C  10)          116.52  0.003675   -0.50    116.02   
    41. A(C   0,C   5,C   6)          118.30  0.000289   -0.04    118.25   
    42. A(C   6,C   5,C  10)          125.18 -0.003967    0.55    125.72   
    43. A(C   5,C   6,O  12)          122.70  0.001474   -0.21    122.49   
    44. A(C   1,C   6,O  12)          116.28 -0.002657    0.34    116.62   
    45. A(C   1,C   6,C   5)          120.97  0.001202   -0.16    120.81   
    46. A(C  10,O   9,H  13)          103.14 -0.022519    3.37    106.52   
    47. A(O   7,C  10,O   9)          120.00 -0.003658    0.43    120.42   
    48. A(C   5,C  10,O   9)          114.98 -0.004494    0.61    115.59   
    49. A(C   5,C  10,O   7)          125.02  0.008141   -1.02    124.00   
    50. A(C   4,C  11,O  12)          108.76 -0.008646    1.13    109.89   
    51. A(C   4,C  11,O   8)          124.34 -0.011542    1.38    125.73   
    52. A(O   8,C  11,O  12)          126.89  0.020186   -2.51    124.38   
    53. A(C   6,O  12,C  11)          112.52 -0.039538    5.34    117.87   
    54. D(C   3,C   2,C   0,H  14)    179.67 -0.000267    0.39    180.07   
    55. D(H  16,C   2,C   0,C   5)    179.89  0.000091   -0.14    179.75   
    56. D(H  16,C   2,C   0,H  14)     -0.25 -0.000158    0.23     -0.02   
    57. D(C   3,C   2,C   0,C   5)     -0.19 -0.000018    0.02     -0.17   
    58. D(H  17,C   3,C   1,C   6)   -179.36  0.000304   -0.47   -179.83   
    59. D(C   1,C   3,C   2,H  16)   -179.75 -0.000020    0.03   -179.72   
    60. D(C   2,C   3,C   1,C   6)      0.49  0.000168   -0.29      0.20   
    61. D(H  17,C   3,C   2,H  16)      0.10 -0.000154    0.21      0.31   
    62. D(H  17,C   3,C   2,C   0)   -179.83 -0.000046    0.05   -179.77   
    63. D(C   2,C   3,C   1,H  15)   -179.98 -0.000314    0.44   -179.54   
    64. D(H  17,C   3,C   1,H  15)      0.17 -0.000177    0.26      0.43   
    65. D(C   1,C   3,C   2,C   0)      0.33  0.000088   -0.13      0.19   
    66. D(C   6,C   5,C   0,H  14)    179.39 -0.000094    0.12    179.51   
    67. D(C  10,C   5,C   0,C   2)    178.84 -0.000852    1.30    180.14   
    68. D(C   6,C   5,C   0,C   2)     -0.76 -0.000362    0.51     -0.25   
    69. D(C  10,C   5,C   0,H  14)     -1.02 -0.000584    0.92     -0.10   
    70. D(O  12,C   6,C   5,C  10)     -0.66  0.001572   -2.53     -3.19   
    71. D(C   1,C   6,C   5,C  10)   -177.97  0.001153   -1.80   -179.78   
    72. D(C   1,C   6,C   5,C   0)      1.58  0.000653   -0.93      0.65   
    73. D(O  12,C   6,C   1,H  15)      1.53 -0.000548    0.80      2.32   
    74. D(O  12,C   6,C   1,C   3)   -178.95 -0.001067    1.53   -177.42   
    75. D(O  12,C   6,C   5,C   0)    178.90  0.001072   -1.66    177.24   
    76. D(C   5,C   6,C   1,H  15)    179.01 -0.000055    0.10    179.11   
    77. D(C   5,C   6,C   1,C   3)     -1.47 -0.000575    0.84     -0.63   
    78. D(O   7,C  10,O   9,H  13)      0.59  0.000467   -0.87     -0.28   
    79. D(C   5,C  10,O   9,H  13)    179.86 -0.000387    0.77    180.63   
    80. D(O   9,C  10,C   5,C   6)      3.28  0.001153   -2.43      0.86   
    81. D(O   9,C  10,C   5,C   0)   -176.28  0.001659   -3.28   -179.56   
    82. D(O   7,C  10,C   5,C   6)   -177.48  0.000146   -0.68   -178.16   
    83. D(O   7,C  10,C   5,C   0)      2.95  0.000651   -1.54      1.42   
    84. D(O   8,C  11,C   4,H  18)   -120.55  0.001856   -0.40   -120.95   
    85. D(O  12,C  11,C   4,H  20)    -62.12 -0.002036    0.79    -61.33   
    86. D(O  12,C  11,C   4,H  19)    178.80 -0.000017    0.02    178.82   
    87. D(O  12,C  11,C   4,H  18)     59.88  0.002001   -0.78     59.10   
    88. D(O   8,C  11,C   4,H  20)    117.45 -0.002181    1.17    118.63   
    89. D(O   8,C  11,C   4,H  19)     -1.63 -0.000162    0.40     -1.23   
    90. D(C   6,O  12,C  11,O   8)      2.85  0.000494   -0.74      2.11   
    91. D(C   6,O  12,C  11,C   4)   -177.59  0.000166   -0.32   -177.91   
    92. D(C  11,O  12,C   6,C   5)     86.32  0.001898   -3.22     83.10   
    93. D(C  11,O  12,C   6,C   1)    -96.24  0.002390   -3.93   -100.18   
    ----------------------------------------------------------------------------

         *************************************************************
         *                GEOMETRY OPTIMIZATION CYCLE   2            *
         *************************************************************
---------------------------------
CARTESIAN COORDINATES (ANGSTROEM)
---------------------------------
  C      2.100045   -0.175494    0.340569
  C      0.732994    2.064134   -0.602708
  C      2.799690    1.000254    0.067226
  C      2.114568    2.122726   -0.407724
  C     -3.659963    1.010126   -0.011230
  C      0.708954   -0.254610    0.150163
  C      0.035172    0.887343   -0.319829
  O      0.698653   -2.533704    0.922100
  O     -1.887264    1.299184    1.630201
  O     -1.277614   -1.629054    0.281375
  C      0.079262   -1.558914    0.479540
  C     -2.238351    1.090443    0.474205
  O     -1.355995    0.890812   -0.597846
  H     -1.553566   -2.537866    0.548750
  H      2.634133   -1.042996    0.709531
  H      0.196262    2.927471   -0.977539
  H      3.871960    1.040184    0.225183
  H      2.653792    3.038783   -0.625600
  H     -3.841083    0.031623   -0.463893
  H     -4.339573    1.145391    0.832091
  H     -3.849894    1.792844   -0.752044

----------------------------
CARTESIAN COORDINATES (A.U.)
----------------------------
  NO LB      ZA    FRAG    MASS        X           Y           Z
   0 C     6.0000    0    12.011          3.968509314832112         -0.331635012253947          0.643582134681491
   1 C     6.0000    0    12.011          1.385158734266080          3.900648635252825         -1.138953242589065
   2 C     6.0000    0    12.011          5.290646795332275          1.890206439761954          0.127039360610233
   3 C     6.0000    0    12.011          3.995953491215903          4.011370985008766         -0.770487588473093
   4 C     6.0000    0    12.011         -6.916327583272604          1.908861234456922         -0.021222418294904
   5 C     6.0000    0    12.011          1.339728108258301         -0.481143330077066          0.283766458257095
   6 C     6.0000    0    12.011          0.066466146076242          1.676835440188770         -0.604389016455941
   7 O     8.0000    0    15.999          1.320262217754914         -4.788006423565824          1.742516026932650
   8 O     8.0000    0    15.999         -3.566411579274400          2.455101805905035          3.080633160023987
   9 O     8.0000    0    15.999         -2.414340823891099         -3.078464995149984          0.531722401508563
  10 C     6.0000    0    12.011          0.149783204669266         -2.945920864967023          0.906199438455491
  11 C     6.0000    0    12.011         -4.229869536462796          2.060638062039535          0.896117405869778
  12 O     8.0000    0    15.999         -2.562459643595305          1.683390493752123         -1.129764857723971
  13 H     1.0000    0     1.008         -2.935814998641501         -4.795871180391127          1.036987493403291
  14 H     1.0000    0     1.008          4.977789329657686         -1.970976710102855          1.340819649023791
  15 H     1.0000    0     1.008          0.370881066610306          5.532117774162776         -1.847281529365026
  16 H     1.0000    0     1.008          7.316944464978548          1.965662225709089          0.425534058600324
  17 H     1.0000    0     1.008          5.014939428015137          5.742466786252687         -1.182212840412025
  18 H     1.0000    0     1.008         -7.258594115874686          0.059759622134261         -0.876631245491945
  19 H     1.0000    0     1.008         -8.200605393390271          2.164475499332324          1.572423345104649
  20 H     1.0000    0     1.008         -7.275245624788491          3.387983354958464         -1.421156429357514

--------------------------------
INTERNAL COORDINATES (ANGSTROEM)
--------------------------------
 C      0   0   0   0.000000     0.000     0.000
 C      1   0   0   2.788285     0.000     0.000
 C      1   2   0   1.395207    60.178     0.000
 C      2   1   3   1.396494    60.094     0.098
 C      2   1   3   4.556189   104.063   191.488
 C      1   2   3   1.406289    60.948   179.931
 C      2   1   3   1.397073    59.988   180.397
 O      6   1   2   2.406296    90.807   180.669
 O      5   2   1   2.433169    50.032    63.311
 O      8   6   1   2.265955    62.283   180.670
 C      8   6   1   1.236818    30.782   181.270
 C      9   5   2   1.226035    30.126   340.461
 O     12   9   5   1.402746   124.381   179.956
 H     10   8   6   0.986701    78.438   180.302
 H      1   2   3   1.083487   179.753    35.349
 H      2   1   3   1.083480   179.358   131.378
 H      3   1   2   1.084578   119.885   179.822
 H      4   2   1   1.085077   119.935   179.869
 H      5   2   1   1.093241   108.243   308.515
 H      5   2   1   1.091493   132.219    88.417
 H      5   2   1   1.094315    85.066   199.761

---------------------------
INTERNAL COORDINATES (A.U.)
---------------------------
 C      0   0   0   0.000000     0.000     0.000
 C      1   0   0   5.269095     0.000     0.000
 C      1   2   0   2.636559    60.178     0.000
 C      2   1   3   2.638991    60.094     0.098
 C      2   1   3   8.609949   104.063   191.488
 C      1   2   3   2.657501    60.948   179.931
 C      2   1   3   2.640086    59.988   180.397
 O      6   1   2   4.547241    90.807   180.669
 O      5   2   1   4.598024    50.032    63.311
 O      8   6   1   4.282034    62.283   180.670
 C      8   6   1   2.337247    30.782   181.270
 C      9   5   2   2.316870    30.126   340.461
 O     12   9   5   2.650806   124.381   179.956
 H     10   8   6   1.864594    78.438   180.302
 H      1   2   3   2.047493   179.753    35.349
 H      2   1   3   2.047481   179.358   131.378
 H      3   1   2   2.049555   119.885   179.822
 H      4   2   1   2.050498   119.935   179.869
 H      5   2   1   2.065925   108.243   308.515
 H      5   2   1   2.062623   132.219    88.417
 H      5   2   1   2.067955    85.066   199.761


Diagonalization of the overlap matrix:
Smallest eigenvalue                        ... 5.455e-04
Time for diagonalization                   ...    0.008 sec
Threshold for overlap eigenvalues          ... 1.000e-08
Number of eigenvalues below threshold      ... 0
Time for construction of square roots      ...    0.003 sec
Total time needed                          ...    0.011 sec

-------------------
DFT GRID GENERATION
-------------------

General Integration Accuracy     IntAcc      ...  4.340
Radial Grid Type                 RadialGrid  ... Gauss-Chebyshev
Angular Grid (max. acc.)         AngularGrid ... Lebedev-110
Angular grid pruning method      GridPruning ... 3 (G Style)
Weight generation scheme         WeightScheme... Becke
Basis function cutoff            BFCut       ...    1.0000e-11
Integration weight cutoff        WCut        ...    1.0000e-14
Grids for H and He will be reduced by one unit

# of grid points (after initial pruning)     ...  28120 (   0.0 sec)
# of grid points (after weights+screening)   ...  25886 (   0.3 sec)
nearest neighbour list constructed           ...    0.0 sec
Grid point re-assignment to atoms done       ...    0.0 sec
Grid point division into batches done        ...    0.0 sec
Reduced shell lists constructed in    0.7 sec

Total number of grid points                  ...    25886
Total number of batches                      ...      413
Average number of points per batch           ...       62
Average number of grid points per atom       ...     1233
Average number of shells per batch           ...    50.31 (62.11%)
Average number of basis functions per batch  ...    88.96 (66.89%)
Average number of large shells per batch     ...    36.03 (71.61%)
Average number of large basis fcns per batch ...    65.26 (73.35%)
Maximum spatial batch extension              ...  18.36, 21.51, 25.60 au
Average spatial batch extension              ...   3.31,  3.55,  4.01 au

Time for grid setup =    0.959 sec

--------------
SCF ITERATIONS
--------------
ITER       Energy         Delta-E        Max-DP      RMS-DP      [F,P]     Damp
               ***  Starting incremental Fock matrix formation  ***
  0   -648.4717731416   0.000000000000 0.01101336  0.00052527  0.0603354 0.7000
  1   -648.4776475813  -0.005874439696 0.01072822  0.00048579  0.0477702 0.7000
                               ***Turning on DIIS***
  2   -648.4823100370  -0.004662455633 0.02874255  0.00126667  0.0359740 0.0000
  3   -648.4941343449  -0.011824307929 0.00360254  0.00019277  0.0051240 0.0000
                      *** Initiating the SOSCF procedure ***
                           *** Shutting down DIIS ***
                      *** Re-Reading the Fockian *** 
                      *** Removing any level shift *** 
ITER      Energy       Delta-E        Grad      Rot      Max-DP    RMS-DP
  4   -648.49430652  -0.0001721701  0.000689  0.000689  0.001365  0.000074
               *** Restarting incremental Fock matrix formation ***
  5   -648.49433430  -0.0000277870  0.000433  0.001924  0.001268  0.000057
  6   -648.49434051  -0.0000062077  0.000180  0.001133  0.000769  0.000039
  7   -648.49434130  -0.0000007876  0.000166  0.000535  0.000370  0.000021
  8   -648.49434246  -0.0000011645  0.000107  0.000254  0.000469  0.000015
  9   -648.49434227   0.0000001869  0.000113  0.000193  0.000263  0.000010
 10   -648.49434266  -0.0000003876  0.000016  0.000037  0.000078  0.000004
 11   -648.49434265   0.0000000118  0.000021  0.000027  0.000053  0.000002
 12   -648.49434268  -0.0000000253  0.000009  0.000026  0.000032  0.000001
 13   -648.49434267   0.0000000030  0.000017  0.000018  0.000021  0.000001
                  ***Gradient check signals convergence***
              ***Rediagonalizing the Fockian in SOSCF/NRSCF***

               *****************************************************
               *                     SUCCESS                       *
               *           SCF CONVERGED AFTER  14 CYCLES          *
               *****************************************************

Setting up the final grid:

General Integration Accuracy     IntAcc      ...  4.670
Radial Grid Type                 RadialGrid  ... Gauss-Chebyshev
Angular Grid (max. acc.)         AngularGrid ... Lebedev-302
Angular grid pruning method      GridPruning ... 3 (G Style)
Weight generation scheme         WeightScheme... Becke
Basis function cutoff            BFCut       ...    1.0000e-11
Integration weight cutoff        WCut        ...    1.0000e-14
Grids for H and He will be reduced by one unit

# of grid points (after initial pruning)     ... 107908 (   0.1 sec)
# of grid points (after weights+screening)   ...  97555 (   1.0 sec)
nearest neighbour list constructed           ...    0.0 sec
Grid point re-assignment to atoms done       ...    0.0 sec
Grid point division into batches done        ...    0.5 sec
Reduced shell lists constructed in    2.7 sec

Total number of grid points                  ...    97555
Total number of batches                      ...     1534
Average number of points per batch           ...       63
Average number of grid points per atom       ...     4645
Average number of shells per batch           ...    45.53 (56.20%)
Average number of basis functions per batch  ...    80.90 (60.82%)
Average number of large shells per batch     ...    31.91 (70.08%)
Average number of large basis fcns per batch ...    58.02 (71.72%)
Maximum spatial batch extension              ...  16.58, 19.92, 21.18 au
Average spatial batch extension              ...   2.26,  2.39,  2.59 au

Final grid set up in    3.9 sec
Final integration                            ... done (   2.5 sec)
Change in XC energy                          ...     0.000091846
Integrated number of electrons               ...    93.999976207
Previous integrated no of electrons          ...    94.002547372
Total Energy       :         -648.49425083 Eh          -17646.42569 eV
  Last Energy change         ...   -3.9681e-09  Tolerance :   1.0000e-08
  Last MAX-Density change    ...    5.0316e-06  Tolerance :   1.0000e-07
             **** THE GBW FILE WAS UPDATED (b3lyp.gbw) ****
             **** DENSITY FILE WAS UPDATED (b3lyp.scfp.tmp) ****
             **** ENERGY FILE WAS UPDATED (b3lyp.en.tmp) ****
Total SCF time: 0 days 0 hours 2 min 21 sec 

-------------------------   --------------------
FINAL SINGLE POINT ENERGY      -648.494250831408
-------------------------   --------------------

------------------------------------------------------------------------------
                         ORCA SCF GRADIENT CALCULATION
------------------------------------------------------------------------------

Gradient of the Kohn-Sham DFT energy:
Kohn-Sham wavefunction type      ... RKS
Hartree-Fock exchange scaling    ...    0.200
Number of operators              ...    1
Number of atoms                  ...   21
Basis set dimensions             ...  133
Integral neglect threshold       ... 2.5e-11
Integral primitive cutoff        ... 2.5e-12

Nuclear repulsion gradient       ... done
One Electron Gradient            ... done
Pre-screening matrix             ... done
Starting the two electron gradient:
Two electron gradient done
Exchange-correlation gradient    ... done

------------------
CARTESIAN GRADIENT
------------------

   1   C   :   -0.004941550   -0.004000519    0.000516589
   2   C   :   -0.000361007   -0.000133867    0.000025978
   3   C   :   -0.000156578    0.001763231   -0.000736341
   4   C   :   -0.000185725   -0.000127838    0.000455439
   5   C   :   -0.001003334   -0.000878085   -0.002979090
   6   C   :    0.003210513    0.005734653   -0.001455981
   7   C   :   -0.000972529   -0.002946921    0.004581819
   8   O   :   -0.002831458    0.003963799   -0.000307914
   9   O   :   -0.005698983   -0.000042019    0.002221897
  10   O   :    0.003333873    0.006691145   -0.001051099
  11   C   :   -0.004286442   -0.009666341   -0.000462402
  12   C   :    0.013517271    0.002636809   -0.000037260
  13   O   :   -0.005965209   -0.003169876   -0.006323052
  14   H   :    0.002798376   -0.003314583    0.001297499
  15   H   :    0.002968811    0.001638830    0.000067454
  16   H   :    0.001837611    0.001143773   -0.000350907
  17   H   :    0.000124118    0.000183691   -0.000017775
  18   H   :    0.000579235   -0.000158295    0.000101155
  19   H   :   -0.000744608   -0.000728910    0.002502101
  20   H   :   -0.001361970   -0.000394108   -0.000203836
  21   H   :    0.000139585    0.001805430    0.002155727

Norm of the cartesian gradient     ...    0.026295641
RMS gradient                       ...    0.003312939
MAX gradient                       ...    0.013517271

-------
TIMINGS
-------

Total SCF gradient time            ...       47.647 sec

One electron gradient       ....       0.475 sec  (  1.0%)
Prescreening matrices       ....       0.116 sec  (  0.2%)
Two electron gradient       ....      29.812 sec  ( 62.6%)
XC gradient                 ....      17.066 sec  ( 35.8%)
------------------------------------------------------------------------------
                         ORCA GEOMETRY RELAXATION STEP
------------------------------------------------------------------------------

Reading the OPT-File                    .... done
Getting information on internals        .... done
Copying old internal coords+grads       .... done
Making the new internal coordinates     .... (new redundants).... done
Validating the new internal coordinates .... (new redundants).... done
Calculating the B-matrix                .... done
Calculating the G,G- and P matrices     .... done
Transforming gradient to internals      .... done
Projecting the internal gradient        .... done
Number of atoms                         ....  21
Number of internal coordinates          ....  93
Current Energy                          ....  -648.494250831 Eh
Current gradient norm                   ....     0.026295641 Eh/bohr
Maximum allowed component of the step   ....  0.300
Current trust radius                    ....  0.300
Updating the Hessian (BFGS)             .... done
Forming the augmented Hessian           .... done
Diagonalizing the augmented Hessian     .... done
Last element of RFO vector              ....  0.983949489
Lowest eigenvalues of augmented Hessian:
 -0.001799520  0.012935347  0.013321742  0.015526080  0.019617015
Length of the computed step             ....  0.181358088
The final length of the internal step   ....  0.181358088
Converting the step to cartesian space:
 Initial RMS(Int)=    0.0188059576
Transforming coordinates:
 Iter   0:  RMS(Cart)=    0.0611253833 RMS(Int)=    1.2973899969
 Iter   1:  RMS(Cart)=    0.0022917110 RMS(Int)=    0.0010553467
 Iter   2:  RMS(Cart)=    0.0001483202 RMS(Int)=    0.0000699341
 Iter   3:  RMS(Cart)=    0.0000133987 RMS(Int)=    0.0000064634
 Iter   4:  RMS(Cart)=    0.0000008854 RMS(Int)=    0.0000004976
 Iter   5:  RMS(Cart)=    0.0000000808 RMS(Int)=    0.0000000451
done
Storing new coordinates                 .... done

                                .--------------------.
          ----------------------|Geometry convergence|---------------------
          Item                value                 Tolerance   Converged
          -----------------------------------------------------------------
          Energy change      -0.00772802            0.00000500      NO
          RMS gradient        0.00204841            0.00010000      NO
          MAX gradient        0.00877659            0.00030000      NO
[...]
Integrated number of electrons               ...    93.999985444
Previous integrated no of electrons          ...    94.003990135

----------------
TOTAL SCF ENERGY
----------------

Total Energy       :         -648.49562065 Eh          -17646.46297 eV

Components:
Nuclear Repulsion  :          778.74115761 Eh           21190.62421 eV
Electronic Energy  :        -1427.23677826 Eh          -38837.08718 eV

One Electron Energy:        -2428.80628998 Eh          -66091.17916 eV
Two Electron Energy:         1001.56951172 Eh           27254.09199 eV

Virial components:
Potential Energy   :        -1293.35424175 Eh          -35193.95814 eV
Kinetic Energy     :          644.85862110 Eh           17547.49518 eV
Virial Ratio       :            2.00564000


DFT components:
N(Alpha)           :       46.999992722014 electrons
N(Beta)            :       46.999992722014 electrons
N(Total)           :       93.999985444027 electrons
E(X)               :      -65.497451285798 Eh       
E(C)               :       -4.177795573670 Eh       
E(XC)              :      -69.675246859468 Eh       

---------------
SCF CONVERGENCE
---------------

  Last Energy change         ...   -1.0315e-08  Tolerance :   1.0000e-08
  Last MAX-Density change    ...    1.1168e-05  Tolerance :   1.0000e-07
  Last RMS-Density change    ...    3.8376e-07  Tolerance :   5.0000e-09
  Last Orbital Gradient      ...    1.8764e-06  Tolerance :   1.0000e-05
  Last Orbital Rotation      ...    6.3282e-06  Tolerance :   1.0000e-05

             **** THE GBW FILE WAS UPDATED (b3lyp.gbw) ****
             **** DENSITY FILE WAS UPDATED (b3lyp.scfp.tmp) ****
             **** ENERGY FILE WAS UPDATED (b3lyp.en.tmp) ****
----------------
ORBITAL ENERGIES
----------------

  NO   OCC          E(Eh)            E(eV) 
   0   2.0000     -19.201655      -522.5036 
   1   2.0000     -19.199202      -522.4368 
   2   2.0000     -19.151738      -521.1453 
   3   2.0000     -19.150761      -521.1187 
   4   2.0000     -10.341282      -281.4006 
   5   2.0000     -10.337438      -281.2960 
   6   2.0000     -10.276133      -279.6278 
   7   2.0000     -10.225767      -278.2573 
   8   2.0000     -10.213702      -277.9290 
   9   2.0000     -10.209685      -277.8197 
  10   2.0000     -10.207727      -277.7664 
  11   2.0000     -10.205481      -277.7053 
  12   2.0000     -10.198590      -277.5177 
  13   2.0000      -1.123332       -30.5674 
  14   2.0000      -1.114019       -30.3140 
  15   2.0000      -1.040150       -28.3039 
  16   2.0000      -1.030314       -28.0363 
  17   2.0000      -0.882207       -24.0061 
  18   2.0000      -0.792074       -21.5534 
  19   2.0000      -0.786210       -21.3939 
  20   2.0000      -0.751365       -20.4457 
  21   2.0000      -0.683814       -18.6075 
  22   2.0000      -0.647156       -17.6100 
  23   2.0000      -0.613952       -16.7065 
  24   2.0000      -0.591487       -16.0952 
  25   2.0000      -0.532021       -14.4770 
  26   2.0000      -0.510119       -13.8810 
  27   2.0000      -0.499007       -13.5787 
  28   2.0000      -0.486424       -13.2363 
  29   2.0000      -0.473135       -12.8746 
  30   2.0000      -0.471063       -12.8183 
  31   2.0000      -0.460333       -12.5263 
  32   2.0000      -0.453468       -12.3395 
  33   2.0000      -0.450252       -12.2520 
  34   2.0000      -0.418377       -11.3846 
  35   2.0000      -0.408981       -11.1290 
  36   2.0000      -0.403972       -10.9926 
  37   2.0000      -0.393371       -10.7042 
  38   2.0000      -0.383671       -10.4402 
  39   2.0000      -0.369178       -10.0458 
  40   2.0000      -0.363865        -9.9013 
  41   2.0000      -0.325290        -8.8516 
  42   2.0000      -0.314364        -8.5543 
  43   2.0000      -0.288607        -7.8534 
  44   2.0000      -0.284810        -7.7501 
  45   2.0000      -0.273223        -7.4348 
  46   2.0000      -0.260533        -7.0895 
  47   0.0000      -0.064445        -1.7536 
  48   0.0000      -0.020215        -0.5501 
  49   0.0000      -0.004948        -0.1346 
  50   0.0000       0.039109         1.0642 
  51   0.0000       0.059211         1.6112 
  52   0.0000       0.084668         2.3039 
  53   0.0000       0.111279         3.0280 
  54   0.0000       0.128607         3.4996 
  55   0.0000       0.140649         3.8273 
  56   0.0000       0.150936         4.1072 
  57   0.0000       0.158637         4.3167 
  58   0.0000       0.167275         4.5518 
  59   0.0000       0.172779         4.7015 
  60   0.0000       0.183533         4.9942 
  61   0.0000       0.214234         5.8296 
  62   0.0000       0.227698         6.1960 
  63   0.0000       0.240677         6.5491 
  64   0.0000       0.268752         7.3131 
  65   0.0000       0.280266         7.6264 
  66   0.0000       0.311704         8.4819 
  67   0.0000       0.314982         8.5711 
  68   0.0000       0.336950         9.1689 
  69   0.0000       0.359314         9.7774 
  70   0.0000       0.394167        10.7258 
  71   0.0000       0.491893        13.3851 
  72   0.0000       0.498615        13.5680 
  73   0.0000       0.511687        13.9237 
  74   0.0000       0.532792        14.4980 
  75   0.0000       0.534461        14.5434 
  76   0.0000       0.542287        14.7564 
  77   0.0000       0.564796        15.3689 
  78   0.0000       0.573670        15.6104 
  79   0.0000       0.581872        15.8335 
  80   0.0000       0.586638        15.9632 
  81   0.0000       0.599839        16.3224 
  82   0.0000       0.618054        16.8181 
  83   0.0000       0.620867        16.8947 
  84   0.0000       0.629361        17.1258 
  85   0.0000       0.634247        17.2588 
  86   0.0000       0.643739        17.5170 
  87   0.0000       0.648552        17.6480 
  88   0.0000       0.661804        18.0086 
  89   0.0000       0.673933        18.3386 
  90   0.0000       0.687926        18.7194 
  91   0.0000       0.714309        19.4373 
  92   0.0000       0.748577        20.3698 
  93   0.0000       0.780144        21.2288 
  94   0.0000       0.810251        22.0481 
  95   0.0000       0.813189        22.1280 
  96   0.0000       0.826539        22.4913 
  97   0.0000       0.854482        23.2516 
  98   0.0000       0.860431        23.4135 
  99   0.0000       0.874087        23.7851 
 100   0.0000       0.883464        24.0403 
 101   0.0000       0.903695        24.5908 
 102   0.0000       0.919683        25.0258 
 103   0.0000       0.932134        25.3646 
 104   0.0000       0.947788        25.7906 
 105   0.0000       0.953607        25.9490 
 106   0.0000       0.961589        26.1662 
 107   0.0000       0.983883        26.7728 
 108   0.0000       0.986970        26.8568 
 109   0.0000       1.015550        27.6345 
 110   0.0000       1.032780        28.1034 
 111   0.0000       1.037189        28.2234 
 112   0.0000       1.050973        28.5984 
 113   0.0000       1.089880        29.6571 
 114   0.0000       1.110813        30.2268 
 115   0.0000       1.119622        30.4665 
 116   0.0000       1.156860        31.4798 
 117   0.0000       1.159546        31.5529 
 118   0.0000       1.201130        32.6844 
 119   0.0000       1.207463        32.8567 
 120   0.0000       1.260587        34.3023 
 121   0.0000       1.292521        35.1713 
 122   0.0000       1.324771        36.0488 
 123   0.0000       1.421570        38.6829 
 124   0.0000       1.445573        39.3360 
 125   0.0000       1.484252        40.3885 
 126   0.0000       1.504822        40.9483 
 127   0.0000       1.584703        43.1220 
 128   0.0000       1.777027        48.3554 
 129   0.0000       1.826485        49.7012 
 130   0.0000       1.908636        51.9366 
 131   0.0000       2.063258        56.1441 
 132   0.0000       2.104322        57.2615 

                    ********************************
                    * MULLIKEN POPULATION ANALYSIS *
                    ********************************

-----------------------
MULLIKEN ATOMIC CHARGES
-----------------------
   0 C :   -0.160631
   1 C :   -0.115127
   2 C :   -0.116602
   3 C :   -0.118526
   4 C :   -0.457738
   5 C :    0.118155
   6 C :    0.259137
   7 O :   -0.408441
   8 O :   -0.398267
   9 O :   -0.568445
  10 C :    0.435941
  11 C :    0.533844
  12 O :   -0.552507
  13 H :    0.391254
  14 H :    0.179002
  15 H :    0.147891
  16 H :    0.144718
  17 H :    0.143084
  18 H :    0.190009
  19 H :    0.174646
  20 H :    0.178604
Sum of atomic charges:    0.0000000

--------------------------------
MULLIKEN REDUCED ORBITAL CHARGES
--------------------------------
  0 C s       :     3.230387  s :     3.230387
      pz      :     0.951769  p :     2.930244
      px      :     0.965952
      py      :     1.012523
  1 C s       :     3.199104  s :     3.199104
      pz      :     1.015979  p :     2.916023
      px      :     0.931432
      py      :     0.968612
  2 C s       :     3.195242  s :     3.195242
      pz      :     0.992123  p :     2.921360
      px      :     1.010737
      py      :     0.918500
  3 C s       :     3.208804  s :     3.208804
      pz      :     0.962099  p :     2.909722
      px      :     0.953466
      py      :     0.994158
  4 C s       :     3.339446  s :     3.339446
      pz      :     1.077119  p :     3.118292
      px      :     0.936960
      py      :     1.104213
  5 C s       :     3.138521  s :     3.138521
      pz      :     1.034057  p :     2.743324
      px      :     0.870306
      py      :     0.838961
  6 C s       :     3.140040  s :     3.140040
      pz      :     0.977757  p :     2.600823
      px      :     0.622269
      py      :     1.000797
  7 O s       :     3.944642  s :     3.944642
      pz      :     1.400919  p :     4.463798
      px      :     1.630464
      py      :     1.432416
  8 O s       :     3.954367  s :     3.954367
      pz      :     1.335528  p :     4.443901
      px      :     1.719838
      py      :     1.388535
  9 O s       :     3.918967  s :     3.918967
      pz      :     1.779834  p :     4.649477
      px      :     1.375647
      py      :     1.493996
 10 C s       :     2.973826  s :     2.973826
      pz      :     0.849068  p :     2.590233
      px      :     0.757662
      py      :     0.983504
 11 C s       :     3.014859  s :     3.014859
      pz      :     0.731378  p :     2.451297
      px      :     0.905408
      py      :     0.814510
 12 O s       :     3.936043  s :     3.936043
      pz      :     1.581163  p :     4.616464
      px      :     1.261818
      py      :     1.773483
 13 H s       :     0.608746  s :     0.608746
 14 H s       :     0.820998  s :     0.820998
 15 H s       :     0.852109  s :     0.852109
 16 H s       :     0.855282  s :     0.855282
 17 H s       :     0.856916  s :     0.856916
 18 H s       :     0.809991  s :     0.809991
 19 H s       :     0.825354  s :     0.825354
 20 H s       :     0.821396  s :     0.821396


                     *******************************
                     * LOEWDIN POPULATION ANALYSIS *
                     *******************************

----------------------
LOEWDIN ATOMIC CHARGES
----------------------
   0 C :   -0.070317
   1 C :   -0.123597
   2 C :   -0.116486
   3 C :   -0.084788
   4 C :   -0.342595
   5 C :   -0.085597
   6 C :    0.145940
   7 O :   -0.292970
   8 O :   -0.264467
   9 O :   -0.332529
  10 C :    0.258211
  11 C :    0.277683
  12 O :   -0.235402
  13 H :    0.307864
  14 H :    0.144424
  15 H :    0.134428
  16 H :    0.126345
  17 H :    0.126056
  18 H :    0.148778
  19 H :    0.136498
  20 H :    0.142521

-------------------------------
LOEWDIN REDUCED ORBITAL CHARGES
-------------------------------
  0 C s       :     2.944420  s :     2.944420
      pz      :     0.967220  p :     3.125898
      px      :     1.064244
      py      :     1.094434
  1 C s       :     2.945234  s :     2.945234
      pz      :     1.026513  p :     3.178363
      px      :     1.081862
      py      :     1.069988
  2 C s       :     2.940081  s :     2.940081
      pz      :     1.011908  p :     3.176405
      px      :     1.097387
      py      :     1.067111
  3 C s       :     2.945564  s :     2.945564
      pz      :     0.976448  p :     3.139224
      px      :     1.080719
      py      :     1.082058
  4 C s       :     2.995102  s :     2.995102
      pz      :     1.138016  p :     3.347494
      px      :     1.060963
      py      :     1.148514
  5 C s       :     2.914787  s :     2.914787
      pz      :     1.053968  p :     3.170810
      px      :     1.076558
      py      :     1.040284
  6 C s       :     2.898350  s :     2.898350
      pz      :     1.000787  p :     2.955710
      px      :     0.862445
      py      :     1.092478
  7 O s       :     3.640980  s :     3.640980
      pz      :     1.426139  p :     4.651990
      px      :     1.706144
      py      :     1.519707
  8 O s       :     3.635775  s :     3.635775
      pz      :     1.454232  p :     4.628692
      px      :     1.778522
      py      :     1.395938
  9 O s       :     3.591124  s :     3.591124
      pz      :     1.783303  p :     4.741405
      px      :     1.425671
      py      :     1.532432
 10 C s       :     2.900811  s :     2.900811
      pz      :     0.874369  p :     2.840978
      px      :     0.920304
      py      :     1.046304
 11 C s       :     2.918632  s :     2.918632
      pz      :     0.982714  p :     2.803685
      px      :     0.999942
      py      :     0.821029
 12 O s       :     3.541769  s :     3.541769
      pz      :     1.619437  p :     4.693633
      px      :     1.293865
      py      :     1.780332
 13 H s       :     0.692136  s :     0.692136
 14 H s       :     0.855576  s :     0.855576
 15 H s       :     0.865572  s :     0.865572
 16 H s       :     0.873655  s :     0.873655
 17 H s       :     0.873944  s :     0.873944
 18 H s       :     0.851222  s :     0.851222
 19 H s       :     0.863502  s :     0.863502
 20 H s       :     0.857479  s :     0.857479


                      *****************************
                      * MAYER POPULATION ANALYSIS *
                      *****************************

  NA   - Mulliken gross atomic population
  ZA   - Total nuclear charge
  QA   - Mulliken gross atomic charge
  VA   - Mayer's total valence
  BVA  - Mayer's bonded valence
  FA   - Mayer's free valence

  ATOM       NA         ZA         QA         VA         BVA        FA
  0 C      6.1606     6.0000    -0.1606     3.8925     3.8925    -0.0000
  1 C      6.1151     6.0000    -0.1151     3.8655     3.8655    -0.0000
  2 C      6.1166     6.0000    -0.1166     3.8616     3.8616     0.0000
  3 C      6.1185     6.0000    -0.1185     3.8861     3.8861     0.0000
  4 C      6.4577     6.0000    -0.4577     3.7286     3.7286    -0.0000
  5 C      5.8818     6.0000     0.1182     3.6885     3.6885     0.0000
  6 C      5.7409     6.0000     0.2591     3.7694     3.7694     0.0000
  7 O      8.4084     8.0000    -0.4084     2.0423     2.0423     0.0000
  8 O      8.3983     8.0000    -0.3983     2.0469     2.0469    -0.0000
  9 O      8.5684     8.0000    -0.5684     1.8140     1.8140    -0.0000
 10 C      5.5641     6.0000     0.4359     3.8498     3.8498    -0.0000
 11 C      5.4662     6.0000     0.5338     3.7880     3.7880     0.0000
 12 O      8.5525     8.0000    -0.5525     1.7759     1.7759     0.0000
 13 H      0.6087     1.0000     0.3913     0.8322     0.8322    -0.0000
 14 H      0.8210     1.0000     0.1790     0.9435     0.9435    -0.0000
 15 H      0.8521     1.0000     0.1479     0.9434     0.9434    -0.0000
 16 H      0.8553     1.0000     0.1447     0.9412     0.9412     0.0000
 17 H      0.8569     1.0000     0.1431     0.9410     0.9410     0.0000
 18 H      0.8100     1.0000     0.1900     0.9320     0.9320     0.0000
 19 H      0.8254     1.0000     0.1746     0.9358     0.9358    -0.0000
 20 H      0.8214     1.0000     0.1786     0.9327     0.9327    -0.0000

  Mayer bond orders larger than 0.1
B(  0-C ,  2-C ) :   1.4415 B(  0-C ,  5-C ) :   1.3677 B(  0-C , 14-H ) :   0.9100 
B(  1-C ,  3-C ) :   1.4308 B(  1-C ,  6-C ) :   1.4192 B(  1-C , 15-H ) :   0.9215 
B(  2-C ,  3-C ) :   1.4168 B(  2-C , 16-H ) :   0.9306 B(  3-C , 17-H ) :   0.9284 
B(  4-C , 11-C ) :   0.9468 B(  4-C , 18-H ) :   0.9270 B(  4-C , 19-H ) :   0.9417 
B(  4-C , 20-H ) :   0.9296 B(  5-C ,  6-C ) :   1.3118 B(  5-C , 10-C ) :   0.9402 
B(  6-C , 12-O ) :   0.8249 B(  7-O , 10-C ) :   1.8610 B(  8-O , 11-C ) :   1.9221 
B(  9-O , 10-C ) :   0.9669 B(  9-O , 13-H ) :   0.7735 B( 11-C , 12-O ) :   0.8639 


-------
TIMINGS
-------

Total SCF time: 0 days 0 hours 1 min 9 sec 

Total time                  ....      69.666 sec
Sum of individual times     ....      69.662 sec  (100.0%)

Fock matrix formation       ....      64.635 sec  ( 92.8%)
  Coulomb formation         ....      57.386 sec  ( 88.8% of F)
  XC integration            ....       7.220 sec  ( 11.2% of F)
    Basis function eval.    ....       3.435 sec  ( 47.6% of XC)
    Density eval.           ....       1.532 sec  ( 21.2% of XC)
    XC-Functional eval.     ....       0.631 sec  (  8.7% of XC)
    XC-Potential eval.      ....       1.422 sec  ( 19.7% of XC)
Diagonalization             ....       0.020 sec  (  0.0%)
Density matrix formation    ....       0.006 sec  (  0.0%)
Population analysis         ....       0.023 sec  (  0.0%)
Initial guess               ....       0.028 sec  (  0.0%)
Orbital Transformation      ....       0.000 sec  (  0.0%)
Orbital Orthonormalization  ....       0.026 sec  (  0.0%)
DIIS solution               ....       0.002 sec  (  0.0%)
SOSCF solution              ....       0.091 sec  (  0.1%)
Grid generation             ....       4.858 sec  (  7.0%)

-------------------------   --------------------
FINAL SINGLE POINT ENERGY      -648.495620645754
-------------------------   --------------------

                                *** OPTIMIZATION RUN DONE ***

                            ***************************************
                            *     ORCA property calculations      *
                            ***************************************

                                    ---------------------
                                    Active property flags
                                    ---------------------
   (+) Dipole Moment


------------------------------------------------------------------------------
                       ORCA ELECTRIC PROPERTIES CALCULATION
------------------------------------------------------------------------------

Dipole Moment Calculation                       ... on
Quadrupole Moment Calculation                   ... off
Polarizability Calculation                      ... off
GBWName                                         ... b3lyp.gbw
Electron density file                           ... b3lyp.scfp.tmp

-------------
DIPOLE MOMENT
-------------
                                X             Y             Z
Electronic contribution:      2.27276      -3.07506       1.47490
Nuclear contribution   :     -2.51340       3.61019      -2.37492
                        -----------------------------------------
Total Dipole Moment    :     -0.24064       0.53512      -0.90001
                        -----------------------------------------
Magnitude (a.u.)       :      1.07438
Magnitude (Debye)      :      2.73085


Timings for individual modules:

Sum of individual times         ...     2020.901 sec (=  33.682 min)
GTO integral calculation        ...        7.236 sec (=   0.121 min)   0.4 %
SCF iterations                  ...     1430.580 sec (=  23.843 min)  70.8 %
SCF Gradient evaluation         ...      579.701 sec (=   9.662 min)  28.7 %
Geometry relaxation             ...        3.384 sec (=   0.056 min)   0.2 %
                             ****ORCA TERMINATED NORMALLY****
TOTAL RUN TIME: 0 days 0 hours 33 minutes 43 seconds 335 msec
