                  Welcome to Q-Chem
     A Quantum Leap Into The Future Of Chemistry


 Q-Chem 4.3, Q-Chem, Inc., Pleasanton, CA (2015)

 Y. Shao,  Z. Gan,  E. Epifanovsky,  A. T. B. Gilbert,  M. Wormit,  
 J. Kussmann,  A. W. Lange,  A. Behn,  J. Deng,  X. Feng,  D. Ghosh,  
 M. Goldey,  P. R. Horn,  L. D. Jacobson,  I. Kaliman,  R. Z. Khaliullin,  
 T. Kus,  A. Landau,  J. Liu,  E. I. Proynov,  Y. M. Rhee,  R. M. Richard,  
 M. A. Rohrdanz,  R. P. Steele,  E. J. Sundstrom,  H. L. Woodcock III,  
 P. M. Zimmerman,  D. Zuev,  B. Albrecht,  E. Alguire,  B. Austin,  
 S. A. Baeppler,  G. J. O. Beran,  Y. A. Bernard,  E. Berquist,  
 K. Brandhorst,  K. B. Bravaya,  S. T. Brown,  D. Casanova,  C.-M. Chang,  
 Y. Chen,  S. H. Chien,  K. D. Closser,  D. L. Crittenden,  M. Diedenhofen,  
 R. A. DiStasio Jr.,  H. Do,  A. D. Dutoi,  R. G. Edgar,  P.-T. Fang,  
 S. Fatehi,  Q. Feng,  L. Fusti-Molnar,  A. Ghysels,  
 A. Golubeva-Zadorozhnaya,  J. Gomes,  A. Gunina,  M. W. D. Hanson-Heine,  
 P. H. P. Harbach,  A. W. Hauser,  E. G. Hohenstein,  Z. C. Holden,  K. Hui,  
 T.-C. Jagau,  H. Ji,  B. Kaduk,  K. Khistyaev,  Jaehoon Kim,  Jihan Kim,  
 R. A. King,  P. Klunzinger,  D. Kosenkov,  T. Kowalczyk,  C. M. Krauter,  
 K. U. Lao,  A. Laurent,  K. V. Lawler,  S. Lehtola,  S. V. Levchenko,  
 C. Y. Lin,  Y.-S. Lin,  F. Liu,  E. Livshits,  R. C. Lochan,  A. Luenser,  
 P. Manohar,  S. F. Manzer,  S.-P. Mao,  N. Mardirossian,  A. V. Marenich,  
 L. A. Martinez-Martinez,  S. A. Maurer,  N. J. Mayhall,  K. Nanda,  
 C. M. Oana,  R. Olivares-Amaya,  D. P. O'Neill,  J. A. Parkhill,  
 T. M. Perrine,  R. Peverati,  P. A. Pieniazek,  F. Plasser,  A. Prociuk,  
 D. R. Rehn,  E. Rosta,  N. J. Russ,  N. Sergueev,  S. M. Sharada,  
 S. Sharma,  D. W. Small,  A. Sodt,  T. Stauch,  T. Stein,  D. Stuck,  
 Y.-C. Su,  A. J. W. Thom,  T. Tsuchimochi,  L. Vogt,  O. Vydrov,  T. Wang,  
 M. A. Watson,  J. Wenzel,  A. White,  C. F. Williams,  V. Vanovschi,  
 S. Yeganeh,  S. R. Yost,  Z.-Q. You,  I. Y. Zhang,  X. Zhang,  Y. Zhao,  
 B. R. Brooks,  G. K. L. Chan,  D. M. Chipman,  C. J. Cramer,  
 W. A. Goddard III,  M. S. Gordon,  W. J. Hehre,  A. Klamt,  
 H. F. Schaefer III,  M. W. Schmidt,  C. D. Sherrill,  D. G. Truhlar,  
 A. Warshel,  X. Xu,  A. Aspuru-Guzik,  R. Baer,  A. T. Bell,  N. A. Besley,  
 J.-D. Chai,  A. Dreuw,  B. D. Dunietz,  T. R. Furlani,  S. R. Gwaltney,  
 C.-P. Hsu,  Y. Jung,  J. Kong,  D. S. Lambrecht,  W. Liang,  C. Ochsenfeld,  
 V. A. Rassolov,  L. V. Slipchenko,  J. E. Subotnik,  T. Van Voorhis,  
 J. M. Herbert,  A. I. Krylov,  P. M. W. Gill,  M. Head-Gordon

 Contributors to earlier versions of Q-Chem not listed above: 
 R. D. Adamson,  J. Baker,  E. F. C. Byrd,  A. K. Chakraborty,  C.-L. Cheng,  
 H. Dachsel,  R. J. Doerksen,  G. Hawkins,  A. Heyden,  S. Hirata,  
 G. Kedziora,  F. J. Keil,  C. Kelley,  P. P. Korambath,  W. Kurlancheek,  
 A. M. Lee,  M. S. Lee,  D. Liotard,  I. Lotan,  P. E. Maslen,  N. Nair,  
 D. Neuhauser,  R. Olson,  B. Peters,  J. Ritchie,  N. E. Schultz,  
 N. Shenvi,  A. C. Simmonett,  K. S. Thanthiriwatte,  Q. Wu,  W. Zhang

 Please cite Q-Chem as follows:
 Y. Shao et al., Mol. Phys. 113, 184-215 (2014)
 DOI: 10.1080/00268976.2014.952696

 Q-Chem 4.3.0 for Intel X86 EM64T Linux

 Parts of Q-Chem use Armadillo 4.550.3 (Singapore Sling Deluxe).
 http://arma.sourceforge.net/

 Q-Chem begins on Sun Sep 20 18:38:33 2015  

Host: n8
0

     Scratch files written to /scratch/3126469.clusman0a.frank.sam.pitt.edu/qchem61886//
 Mar1615 |home|dlambrecht|erb74|opt|apps|qchem|trunk_RNUM -1

Checking the input file for inconsistencies...	...done.

--------------------------------------------------------------
User input:
--------------------------------------------------------------
$rem
jobtype opt
exchange hf
basis 6-31g
$end

$molecule
0 1
C          2.05639       -0.16543        0.39727
C          0.68890        2.02854       -0.64816
C          2.74071        1.02327        0.12533
C          2.05734        2.11782       -0.40016
C         -3.59396        1.03209        0.04589
C          0.67738       -0.27507        0.15097
C          0.00274        0.84234       -0.35887
O          0.63293       -2.54526        0.93360
O         -1.76452        1.43252        1.56571
O         -1.24894       -1.68411        0.12975
C          0.05278       -1.58881        0.44958
C         -2.15199        1.12841        0.44513
O         -1.36167        0.82832       -0.65825
H         -1.47652       -2.60111        0.39232
H          2.60948       -1.01173        0.80284
H          0.15708        2.88266       -1.05823
H          3.80777        1.09126        0.32364
H          2.59044        3.04081       -0.61405
H         -3.81640        0.02049       -0.30287
H         -4.22480        1.24591        0.91440
H         -3.81296        1.76576       -0.73332
$end
--------------------------------------------------------------
 ----------------------------------------------------------------
             Standard Nuclear Orientation (Angstroms)
    I     Atom           X                Y                Z
 ----------------------------------------------------------------
    1      C       2.2659778615    -0.4048538598     0.2384124484
    2      C       0.8404766219     1.8941687731    -0.4390078754
    3      C       2.9041868558     0.8392784395     0.2296364871
    4      C       2.1920373263     1.9869454065    -0.1122371445
    5      C      -3.4154789090     0.6198772184    -0.1552274369
    6      C       0.9047546129    -0.5183311991    -0.0910528162
    7      C       0.1996105502     0.6491064344    -0.4128326881
    8      O       0.9352655571    -2.8961656812     0.2454295956
    9      O      -1.6699656302     0.7928002020     1.5001664033
   10      O      -0.9508341985    -1.9703180891    -0.4719425462
   11      C       0.3309408922    -1.8879083468    -0.0768355628
   12      C      -1.9969904466     0.6935154295     0.3247887053
   13      O      -1.1493792144     0.6401111855    -0.7755795606
   14      H      -1.1455606429    -2.9286248480    -0.3987685814
   15      H       2.8413022770    -1.2911343310     0.5032293784
   16      H       0.2861964531     2.7897951564    -0.7057245186
   17      H       3.9579616369     0.9090854213     0.4889668477
   18      H       2.6894410725     2.9535663171    -0.1216504729
   19      H      -3.5758547746    -0.3143388015    -0.6992565365
   20      H      -4.0903466424     0.6396144990     0.7062548323
   21      H      -3.6369236834     1.4798258756    -0.7915067874
 ----------------------------------------------------------------
 Molecular Point Group                 C1    NOp =  1
 Largest Abelian Subgroup              C1    NOp =  1
 Nuclear Repulsion Energy =   782.6611652780 hartrees
 There are       47 alpha and       47 beta electrons
 Requested basis set is 6-31G
 There are 55 shells and 133 basis functions

Total QAlloc Memory Limit   2000 MB
Mega-Array Size        61 MB
MEM_STATIC part        62 MB
 A cutoff of  1.0D-11 yielded   1253 shell pairs
 There are      8267 function pairs
 
 -------------------------------------------------------
 OpenMP Integral Computing Module                       
 Release: version 1.0, May 2013, Q-Chem Inc. Pittsburgh 
 -------------------------------------------------------
 Integral Job Info:
 Integral job number is                      11
 Integral operator is                         1
 short-range coefficients               -999999
 long-range coefficients                -999999
 Omega coefficients                           0
 if combine SR and LR in K              -999999
 Integral screening is                        0
 Integral computing path is                   2
 max size of driver memory is            800000
 size of driver memory is                 45569
 size of scratch memory is              1939132
 max col of scratch BK array                289
 max len of scratch array in speh3           22
 max len of scratch index in speh4            8
 max int batch size is                      520
 min int batch size is                       52
 fixed nKL is                                52
 max L of basis functions is                  1
 order of int derivative is                   0
 number of shells is                         55
 number of basis is                         133
 number of cartesian basis is               133
 number of contracted shell pairs          1253
 number of primitive shell pairs           5611
 maxK2 (contraction) of shell pair           36
 max number of K2 of shell pair               1
 max number of CS2 of shell pair            220
 max number of PS2 of shell pair           1320
 mem total for path MDJ                   45678
 -------------------------------------------------------
 Smallest overlap matrix eigenvalue = 5.37E-04

  Scale SEOQF with 1.000000e-01/1.000000e-01/1.000000e-01

 Standard Electronic Orientation quadrupole field applied
 Nucleus-field energy     =     0.0000000242 hartrees
 Guess from superposition of atomic densities
 Warning:  Energy on first SCF cycle will be non-variational
 A restricted Hartree-Fock SCF calculation will be
 performed using Pulay DIIS extrapolation
 SCF converges when DIIS error is below 1.0E-08
 ---------------------------------------
  Cycle       Energy         DIIS Error
 ---------------------------------------
    1    -649.2857155413      9.29E-02
    2    -644.3670357549      1.09E-02
    3    -644.5331427937      8.45E-03
    4    -644.6558618819      1.23E-03
    5    -644.6601832291      5.98E-04
    6    -644.6610360685      1.44E-04
    7    -644.6611646441      7.29E-05
    8    -644.6611988109      2.67E-05
    9    -644.6612030620      1.12E-05
   10    -644.6612035604      3.50E-06
   11    -644.6612036112      1.27E-06
   12    -644.6612036175      4.05E-07
   13    -644.6612036185      1.89E-07
   14    -644.6612036187      8.82E-08
   15    -644.6612036187      3.25E-08
   16    -644.6612036197      1.13E-08
   17    -644.6612036203      3.13E-09 Convergence criterion met
 ---------------------------------------
 SCF time:  CPU 21.41 s  wall 21.48 s
 SCF   energy in the final basis set = -644.6612036203
 Total energy in the final basis set = -644.6612036203
 Analysis of SCF Wavefunction
 
 --------------------------------------------------------------
 
                    Orbital Energies (a.u.)
 --------------------------------------------------------------
 
 Alpha MOs
 -- Occupied --
-20.635 -20.630 -20.581 -20.574 -11.424 -11.420 -11.342 -11.283
-11.273 -11.273 -11.264 -11.260 -11.249  -1.504  -1.488  -1.394
 -1.382  -1.185  -1.070  -1.057  -1.015  -0.918  -0.869  -0.828
 -0.796  -0.731  -0.720  -0.701  -0.695  -0.676  -0.666  -0.649
 -0.633  -0.624  -0.597  -0.586  -0.568  -0.562  -0.532  -0.523
 -0.521  -0.486  -0.476  -0.467  -0.457  -0.366  -0.354
 -- Virtual --
  0.072   0.122   0.156   0.213   0.216   0.228   0.251   0.280
  0.290   0.308   0.315   0.325   0.342   0.366   0.401   0.410
  0.418   0.448   0.465   0.494   0.498   0.530   0.568   0.586
  0.708   0.711   0.733   0.741   0.750   0.762   0.780   0.803
  0.809   0.811   0.829   0.845   0.853   0.858   0.866   0.871
  0.890   0.922   0.928   0.952   0.966   0.990   1.030   1.040
  1.080   1.099   1.116   1.118   1.145   1.150   1.168   1.195
  1.205   1.217   1.221   1.231   1.249   1.255   1.269   1.275
  1.288   1.328   1.338   1.367   1.372   1.398   1.444   1.471
  1.482   1.510   1.555   1.578   1.687   1.707   1.741   1.758
  1.858   2.061   2.090   2.200   2.379   2.416
 --------------------------------------------------------------
 
          Ground-State Mulliken Net Atomic Charges

     Atom                 Charge (a.u.)
  ----------------------------------------
      1 C                    -0.157182
      2 C                    -0.195646
      3 C                    -0.214378
      4 C                    -0.166686
      5 C                    -0.518813
      6 C                    -0.121955
      7 C                     0.383986
      8 O                    -0.560421
      9 O                    -0.540444
     10 O                    -0.719332
     11 C                     0.780313
     12 C                     0.747626
     13 O                    -0.729370
     14 H                     0.444944
     15 H                     0.272050
     16 H                     0.231434
     17 H                     0.218580
     18 H                     0.224355
     19 H                     0.217248
     20 H                     0.202352
     21 H                     0.201340
  ----------------------------------------
  Sum of atomic charges =     0.000000

 -----------------------------------------------------------------
                    Cartesian Multipole Moments
 -----------------------------------------------------------------
    Charge (ESU x 10^10)
                 0.0000
    Dipole Moment (Debye)
         X      -0.4273      Y       1.9847      Z      -1.9826
       Tot       2.8376
    Quadrupole Moments (Debye-Ang)
        XX     -60.5086     XY       8.8435     YY     -72.0661
        XZ       3.6036     YZ      -0.7396     ZZ     -84.4910
    Octopole Moments (Debye-Ang^2)
       XXX     -21.3217    XXY       8.3243    XYY     -26.3108
       YYY      18.3126    XXZ       1.2498    XYZ       4.5068
       YYZ     -13.9779    XZZ       1.0800    YZZ     -12.8302
       ZZZ      -6.0890
    Hexadecapole Moments (Debye-Ang^3)
      XXXX   -1453.2573   XXXY       4.8391   XXYY    -417.3790
      XYYY     118.4073   YYYY   -1029.5710   XXXZ      36.9793
      XXYZ      -2.5809   XYYZ       2.9168   YYYZ      22.9485
      XXZZ    -341.0850   XYZZ      -0.1488   YYZZ    -216.5206
      XZZZ      12.0150   YZZZ      -2.1565   ZZZZ    -228.8405
 -----------------------------------------------------------------
 Calculating analytic gradient of the SCF energy
 Gradient of Coulomb and Exchange Energy
            1           2           3           4           5           6
    1  -9.6561831  -0.1163226 -11.6793337  -7.2536895   8.1097954  -0.8373445
    2   4.4865364 -11.9903431  -2.3405055  -9.8921276  -1.5255008   6.3154135
    3  -2.4309461   3.3834724  -2.2259027   0.1659630   0.6120096   0.2993708
            7           8           9          10          11          12
    1   1.8842781 -10.9830328   1.3221359  11.8468033   2.7539101   7.5673231
    2  -2.1942482  23.8867787  -4.7650741   3.7317160  -0.3676480  -1.0803191
    3   1.9698329  -5.7540328 -25.5224778   5.8997066   2.1283667   6.9357828
           13          14          15          16          17          18
    1   8.1997741   1.3085409  -3.9254247   2.5550218  -5.5454613  -2.7770303
    2  -4.2998571   6.2364161   4.7252299  -5.5154278  -0.5040943  -5.0266361
    3  14.3886234  -0.3598761  -1.5720277   1.7007192  -1.3231681   0.0520608
           19          20          21
    1   1.8261436   3.5058372   1.8942589
    2   3.9951875  -0.1367206  -3.7387757
    3   2.2688931  -3.1448623   2.5284923
 Gradient of SCF Energy
            1           2           3           4           5           6
    1  -0.0072068   0.0001557  -0.0015448   0.0011153   0.0084727  -0.0071880
    2  -0.0075974   0.0046097   0.0068617   0.0002325   0.0004437   0.0009857
    3  -0.0008369  -0.0018165  -0.0015125   0.0003085  -0.0098339  -0.0014995
            7           8           9          10          11          12
    1  -0.0251603   0.0002614  -0.0063284   0.0006001  -0.0123592   0.0314341
    2  -0.0117942  -0.0056540   0.0031001   0.0407599  -0.0210506   0.0025063
    3   0.0158609   0.0010588   0.0397065  -0.0080870  -0.0007972  -0.0074097
           13          14          15          16          17          18
    1  -0.0089127   0.0135742   0.0110983  -0.0026710   0.0111774   0.0056693
    2  -0.0041473  -0.0219648  -0.0086112   0.0118820   0.0014393   0.0094854
    3  -0.0446116   0.0075737   0.0040521  -0.0022472   0.0027126   0.0003116
           19          20          21
    1  -0.0029350  -0.0073769  -0.0018755
    2  -0.0097569  -0.0005342   0.0088042
    3  -0.0000830   0.0077613  -0.0006110
 Max gradient component =       4.461E-02
 RMS gradient           =       1.273E-02
 Gradient time:  CPU 7.93 s  wall 7.96 s
 Geometry Optimization Parameters
   NAtoms,    NIC,     NZ,  NCons,   NDum,   NFix, NCnnct, MaxDiis
       21     135       0       0       0       0       0       0


** GEOMETRY OPTIMIZATION IN DELOCALIZED INTERNAL COORDINATES **
   Searching for a Minimum

   Optimization Cycle:   1

                       Coordinates (Angstroms)
     ATOM                X               Y               Z
      1  C         2.2659778615   -0.4048538598    0.2384124484
      2  C         0.8404766219    1.8941687731   -0.4390078754
      3  C         2.9041868558    0.8392784395    0.2296364871
      4  C         2.1920373263    1.9869454065   -0.1122371445
      5  C        -3.4154789090    0.6198772184   -0.1552274369
      6  C         0.9047546129   -0.5183311991   -0.0910528162
      7  C         0.1996105502    0.6491064344   -0.4128326881
      8  O         0.9352655571   -2.8961656812    0.2454295956
      9  O        -1.6699656302    0.7928002020    1.5001664033
     10  O        -0.9508341985   -1.9703180891   -0.4719425462
     11  C         0.3309408922   -1.8879083468   -0.0768355628
     12  C        -1.9969904466    0.6935154295    0.3247887053
     13  O        -1.1493792144    0.6401111855   -0.7755795606
     14  H        -1.1455606429   -2.9286248480   -0.3987685814
     15  H         2.8413022770   -1.2911343310    0.5032293784
     16  H         0.2861964531    2.7897951564   -0.7057245186
     17  H         3.9579616369    0.9090854213    0.4889668477
     18  H         2.6894410725    2.9535663171   -0.1216504729
     19  H        -3.5758547746   -0.3143388015   -0.6992565365
     20  H        -4.0903466424    0.6396144990    0.7062548323
     21  H        -3.6369236834    1.4798258756   -0.7915067874
   Point Group: c1    Number of degrees of freedom:    57


   Energy is   -644.661203620


 Attempting to Generate Delocalized Internal Coordinates

 57 Hessian modes will be used to form the next step
  Hessian Eigenvalues:
     0.009269    0.011164    0.011290    0.014852    0.016050    0.016968
     0.018607    0.021225    0.022064    0.022215    0.022488    0.022776
     0.022957    0.023077    0.023095    0.023277    0.074958    0.076717
     0.159995    0.159999    0.160000    0.160000    0.160000    0.160000
     0.160000    0.160000    0.219998    0.224863    0.244761    0.249747
     0.249990    0.249993    0.249995    0.250000    0.250000    0.250000
     0.324492    0.340041    0.342948    0.344787    0.345334    0.348913
     0.351080    0.351462    0.352187    0.415073    0.419284    0.451957
     0.457286    0.460689    0.461315    0.465815    0.473183    0.512637
     0.563577    0.936081    0.958853

 Minimum Search - Taking Simple RFO Step
 Searching for Lamda that Minimizes Along All modes
 Value Taken    Lamda =  -0.02984611
 Calculated Step too Large.  Step scaled by  0.837430
 Step Taken.  Stepsize is  0.300000

                             Maximum     Tolerance    Cnvgd?
         Gradient           0.037486      0.000300      NO
         Displacement       0.134177      0.001200      NO
         Energy change     *********      0.000001      NO


 New Cartesian Coordinates Obtained by Inverse Iteration

 Displacement from previous Coordinates is:  1.116503
 ----------------------------------------------------------------
             Standard Nuclear Orientation (Angstroms)
    I     Atom           X                Y                Z
 ----------------------------------------------------------------
    1      C       2.3107243672    -0.3947829158     0.1688747335
    2      C       0.8804368293     1.9079074179    -0.3649497398
    3      C       2.9607284387     0.8255860946     0.1515352040
    4      C       2.2415182338     1.9802506726    -0.1177053543
    5      C      -3.4688591486     0.6034847666    -0.2333416830
    6      C       0.9415257517    -0.4870126914    -0.0780675244
    7      C       0.2361708372     0.6852246405    -0.3365583370
    8      O       1.0068912786    -2.8428330857     0.2353198239
    9      O      -1.8119943618     0.6464663228     1.5234618905
   10      O      -0.9628776028    -1.9519475433    -0.2868726329
   11      C       0.3632523034    -1.8455460296    -0.0315898560
   12      C      -2.0941545970     0.6429712577     0.3496791541
   13      O      -1.1344698307     0.6861591552    -0.6420854456
   14      H      -1.2682582035    -2.8654140661    -0.2301338060
   15      H       2.8600179555    -1.2925921577     0.3781261509
   16      H       0.3134555782     2.7925377427    -0.5820742714
   17      H       4.0156466653     0.8737236371     0.3472458242
   18      H       2.7373160389     2.9331357897    -0.1365339379
   19      H      -3.5649005372    -0.2669057304    -0.8697129163
   20      H      -4.1990603552     0.5504468406     0.5631720903
   21      H      -3.6462920656     1.4951550837    -0.8225271963
 ----------------------------------------------------------------
 Molecular Point Group                 C1    NOp =  1
 Largest Abelian Subgroup              C1    NOp =  1
 Nuclear Repulsion Energy =   782.6937449428 hartrees
 There are       47 alpha and       47 beta electrons
 Applying Cartesian multipole field
    Component          Value
    ---------          -----
     (2,0,0)        1.00000E-11
     (0,2,0)        2.00000E-11
     (0,0,2)       -3.00000E-11
 Nucleus-field energy     =     0.0000000247 hartrees
 Requested basis set is 6-31G
 There are 55 shells and 133 basis functions
 A cutoff of  1.0D-11 yielded   1246 shell pairs
 There are      8218 function pairs
 Smallest overlap matrix eigenvalue = 4.95E-04
 Guess MOs from SCF MO coefficient file
 Reading MOs from coefficient file
 Reading MOs from coefficient file
 A restricted Hartree-Fock SCF calculation will be
 performed using Pulay DIIS extrapolation
 SCF converges when DIIS error is below 1.0E-08
Geometry optimization detected.  Setting ReadMinima to 0
Setting SaveMinima to 0
 ---------------------------------------
  Cycle       Energy         DIIS Error
 ---------------------------------------
    1    -644.7888791987      6.01E-03
    2    -644.6706384938      8.92E-04
    3    -644.6738085586      4.25E-04
    4    -644.6743144846      1.91E-04
    5    -644.6744565236      5.61E-05
    6    -644.6744688619      2.39E-05
    7    -644.6744728077      9.67E-06
    8    -644.6744735670      3.52E-06
    9    -644.6744737125      1.29E-06
   10    -644.6744737287      5.35E-07
   11    -644.6744737315      1.70E-07
   12    -644.6744737319      7.45E-08
   13    -644.6744737318      2.31E-08
   14    -644.6744737321      8.83E-09 Convergence criterion met
 ---------------------------------------
 SCF time:  CPU 17.15 s  wall 17.21 s
 SCF   energy in the final basis set = -644.6744737321
 Total energy in the final basis set = -644.6744737321
 Analysis of SCF Wavefunction
 
 --------------------------------------------------------------
 
                    Orbital Energies (a.u.)
 --------------------------------------------------------------
 
 Alpha MOs
 -- Occupied --
-20.622 -20.621 -20.572 -20.570 -11.422 -11.416 -11.341 -11.279
-11.269 -11.267 -11.258 -11.255 -11.248  -1.493  -1.483  -1.389
 -1.378  -1.192  -1.073  -1.062  -1.022  -0.922  -0.875  -0.833
 -0.801  -0.734  -0.714  -0.699  -0.691  -0.674  -0.667  -0.644
 -0.636  -0.626  -0.590  -0.584  -0.576  -0.562  -0.537  -0.524
 -0.520  -0.484  -0.471  -0.463  -0.455  -0.366  -0.355
 -- Virtual --
  0.075   0.127   0.166   0.212   0.220   0.232   0.253   0.283
  0.292   0.313   0.318   0.329   0.347   0.370   0.404   0.420
  0.426   0.458   0.481   0.496   0.499   0.537   0.576   0.593
  0.708   0.714   0.736   0.747   0.753   0.759   0.787   0.798
  0.810   0.814   0.837   0.845   0.854   0.861   0.869   0.874
  0.890   0.924   0.944   0.951   0.961   0.991   1.028   1.046
  1.093   1.113   1.128   1.135   1.148   1.156   1.177   1.203
  1.212   1.222   1.227   1.233   1.258   1.266   1.272   1.286
  1.299   1.339   1.341   1.364   1.382   1.422   1.441   1.481
  1.491   1.532   1.562   1.591   1.703   1.720   1.760   1.794
  1.866   2.071   2.114   2.211   2.369   2.417
 --------------------------------------------------------------
 
          Ground-State Mulliken Net Atomic Charges

     Atom                 Charge (a.u.)
  ----------------------------------------
      1 C                    -0.159915
      2 C                    -0.207015
      3 C                    -0.209848
      4 C                    -0.166338
      5 C                    -0.518280
      6 C                    -0.135584
      7 C                     0.428113
      8 O                    -0.556716
      9 O                    -0.537376
     10 O                    -0.747397
     11 C                     0.803869
     12 C                     0.767264
     13 O                    -0.777006
     14 H                     0.447422
     15 H                     0.272554
     16 H                     0.230724
     17 H                     0.219143
     18 H                     0.222151
     19 H                     0.216396
     20 H                     0.204728
     21 H                     0.203111
  ----------------------------------------
  Sum of atomic charges =    -0.000000

 -----------------------------------------------------------------
                    Cartesian Multipole Moments
 -----------------------------------------------------------------
    Charge (ESU x 10^10)
                -0.0000
    Dipole Moment (Debye)
         X      -0.6480      Y       2.0620      Z      -2.1835
       Tot       3.0724
    Quadrupole Moments (Debye-Ang)
        XX     -59.4503     XY       9.3841     YY     -71.6847
        XZ       4.2955     YZ      -0.4607     ZZ     -84.0718
    Octopole Moments (Debye-Ang^2)
       XXX     -25.7324    XXY       8.0454    XYY     -29.3759
       YYY      17.4248    XXZ      -5.1415    XYZ       3.8083
       YYZ     -11.8520    XZZ       0.7728    YZZ     -12.3740
       ZZZ     -12.2402
    Hexadecapole Moments (Debye-Ang^3)
      XXXX   -1503.8588   XXXY       3.8774   XXYY    -422.5409
      XYYY     117.9424   YYYY    -999.2336   XXXZ      47.8271
      XXYZ      -0.2469   XYYZ       3.4574   YYYZ      25.2310
      XXZZ    -355.6304   XYZZ      -1.7534   YYZZ    -208.6837
      XZZZ      28.0474   YZZZ       7.4990   ZZZZ    -214.2645
 -----------------------------------------------------------------
 Calculating analytic gradient of the SCF energy
 Gradient of Coulomb and Exchange Energy
            1           2           3           4           5           6
    1  -9.8617837  -0.3651391 -11.9537383  -7.2801008   8.3319864  -0.9536095
    2   4.2788737 -12.2664820  -2.2928089  -9.8368261  -1.5084592   6.2783311
    3  -1.7562069   2.6165529  -1.6525427   0.2284661   0.6726009   0.4190635
            7           8           9          10          11          12
    1   1.6095738 -11.7608064   1.6783621  11.1497756   3.1628350   9.2805089
    2  -2.3555210  23.7815076  -3.0319792   4.7681383  -1.2288976  -1.4843033
    3   1.7939414  -4.7341354 -25.7823758   4.0421090   1.9890066   8.3909583
           13          14          15          16          17          18
    1   7.0293044   2.4796089  -3.8173854   2.7594629  -5.6391750  -2.7933837
    2  -5.2991159   6.1436355   4.9239595  -5.4528416  -0.3782328  -5.0261509
    3  12.2538161  -0.1900180  -1.2532726   1.4387770  -1.0148516   0.1126241
           19          20          21
    1   1.4901885   3.7551372   1.6983783
    2   3.6735081   0.1161964  -3.8025318
    3   2.8526903  -2.9112540   2.4840508
 Gradient of SCF Energy
            1           2           3           4           5           6
    1  -0.0036881   0.0006305  -0.0013082  -0.0004779  -0.0005482   0.0030006
    2  -0.0005643  -0.0022727   0.0008299  -0.0009334   0.0002205   0.0027692
    3  -0.0006476   0.0000787  -0.0006160   0.0006909  -0.0033465   0.0004795
            7           8           9          10          11          12
    1   0.0071285  -0.0012927  -0.0002744  -0.0005092   0.0048798  -0.0018949
    2  -0.0008868  -0.0011575  -0.0005590   0.0068535   0.0033041   0.0033022
    3   0.0034192   0.0016786   0.0049411  -0.0007938  -0.0031378   0.0026897
           13          14          15          16          17          18
    1  -0.0033934  -0.0037387   0.0025604   0.0000590   0.0017955   0.0010809
    2  -0.0031315  -0.0098989  -0.0006953   0.0020397   0.0000297   0.0011631
    3  -0.0098817   0.0002717   0.0007688  -0.0005057   0.0004019   0.0000407
           19          20          21
    1  -0.0008187  -0.0025514  -0.0006393
    2  -0.0021309  -0.0003834   0.0021018
    3   0.0010966   0.0011078   0.0012637
 Max gradient component =       9.899E-03
 RMS gradient           =       2.902E-03
 Gradient time:  CPU 7.83 s  wall 7.86 s
 Geometry Optimization Parameters
   NAtoms,    NIC,     NZ,  NCons,   NDum,   NFix, NCnnct, MaxDiis
       21     135       0       0       0       0       0       0

 Cartesian Hessian Update
 Hessian Updated using BFGS Update


** GEOMETRY OPTIMIZATION IN DELOCALIZED INTERNAL COORDINATES **
   Searching for a Minimum

   Optimization Cycle:   2

                       Coordinates (Angstroms)
     ATOM                X               Y               Z
      1  C         2.3107243672   -0.3947829158    0.1688747335
      2  C         0.8804368293    1.9079074179   -0.3649497398
      3  C         2.9607284387    0.8255860946    0.1515352040
      4  C         2.2415182338    1.9802506726   -0.1177053543
      5  C        -3.4688591486    0.6034847666   -0.2333416830
      6  C         0.9415257517   -0.4870126914   -0.0780675244
      7  C         0.2361708372    0.6852246405   -0.3365583370
      8  O         1.0068912786   -2.8428330857    0.2353198239
      9  O        -1.8119943618    0.6464663228    1.5234618905
     10  O        -0.9628776028   -1.9519475433   -0.2868726329
     11  C         0.3632523034   -1.8455460296   -0.0315898560
     12  C        -2.0941545970    0.6429712577    0.3496791541
     13  O        -1.1344698307    0.6861591552   -0.6420854456
     14  H        -1.2682582035   -2.8654140661   -0.2301338060
     15  H         2.8600179555   -1.2925921577    0.3781261509
     16  H         0.3134555782    2.7925377427   -0.5820742714
     17  H         4.0156466653    0.8737236371    0.3472458242
     18  H         2.7373160389    2.9331357897   -0.1365339379
     19  H        -3.5649005372   -0.2669057304   -0.8697129163
     20  H        -4.1990603552    0.5504468406    0.5631720903
     21  H        -3.6462920656    1.4951550837   -0.8225271963
   Point Group: c1    Number of degrees of freedom:    57


   Energy is   -644.674473732

 Hessian Updated using BFGS Update

 54 Hessian modes will be used to form the next step
  Hessian Eigenvalues:
     0.009269    0.011180    0.011290    0.014933    0.016016    0.016988
     0.018630    0.021222    0.022050    0.022219    0.022471    0.022781
     0.022958    0.023080    0.023098    0.023277    0.074746    0.076717
     0.158668    0.159996    0.160000    0.160000    0.160000    0.172523
     0.220013    0.224899    0.241987    0.245981    0.249766    0.249991
     0.249993    0.249996    0.287590    0.324111    0.339844    0.341690
     0.344848    0.345275    0.348510    0.350625    0.351393    0.352021
     0.415196    0.419009    0.448982    0.452985    0.459643    0.465760
     0.468061    0.496047    0.508211    0.579662    0.933762    0.958819

 Minimum Search - Taking Simple RFO Step
 Searching for Lamda that Minimizes Along All modes
 Value Taken    Lamda =  -0.00271105
 Step Taken.  Stepsize is  0.280639

                             Maximum     Tolerance    Cnvgd?
         Gradient           0.008157      0.000300      NO
         Displacement       0.111896      0.001200      NO
         Energy change     -0.013270      0.000001      NO


 New Cartesian Coordinates Obtained by Inverse Iteration

 Displacement from previous Coordinates is:  0.960181
 ----------------------------------------------------------------
             Standard Nuclear Orientation (Angstroms)
    I     Atom           X                Y                Z
 ----------------------------------------------------------------
    1      C       2.3009896623    -0.3903047159     0.1385350321
    2      C       0.9013743189     1.9463464461    -0.3300451817
    3      C       2.9748935714     0.8154049002     0.1050704741
    4      C       2.2704117368     1.9878060915    -0.1289714312
    5      C      -3.4349994974     0.5395428533    -0.2824264421
    6      C       0.9222207194    -0.4527302912    -0.0591452536
    7      C       0.2399246432     0.7357718758    -0.2998154882
    8      O       0.9512540769    -2.8126492526     0.1924945644
    9      O      -1.8275944383     0.4601049887     1.5159096843
   10      O      -1.0289651373    -1.8449259238    -0.1369395092
   11      C       0.3103413476    -1.7920486502     0.0297261251
   12      C      -2.0880931582     0.5625566566     0.3454537258
   13      O      -1.1188987019     0.7539628087    -0.6009607614
   14      H      -1.3593078397    -2.7362252088    -0.0786910300
   15      H       2.8237726880    -1.3039149131     0.3252148868
   16      H       0.3397692906     2.8352766068    -0.5254228050
   17      H       4.0332280119     0.8404722844     0.2633494568
   18      H       2.7808747182     2.9292015576    -0.1568453478
   19      H      -3.4726566480    -0.2544887637    -1.0136957444
   20      H      -4.1820042541     0.3836906916     0.4776633847
   21      H      -3.6197175350     1.4731651598    -0.7951961689
 ----------------------------------------------------------------
 Molecular Point Group                 C1    NOp =  1
 Largest Abelian Subgroup              C1    NOp =  1
 Nuclear Repulsion Energy =   788.6449031919 hartrees
 There are       47 alpha and       47 beta electrons
 Applying Cartesian multipole field
    Component          Value
    ---------          -----
     (2,0,0)        1.00000E-11
     (0,2,0)        2.00000E-11
     (0,0,2)       -3.00000E-11
 Nucleus-field energy     =     0.0000000243 hartrees
 Requested basis set is 6-31G
 There are 55 shells and 133 basis functions
 A cutoff of  1.0D-11 yielded   1250 shell pairs
 There are      8222 function pairs
 Smallest overlap matrix eigenvalue = 4.95E-04
 Guess MOs from SCF MO coefficient file
 Reading MOs from coefficient file
 Reading MOs from coefficient file
 A restricted Hartree-Fock SCF calculation will be
 performed using Pulay DIIS extrapolation
 SCF converges when DIIS error is below 1.0E-08
Geometry optimization detected.  Setting ReadMinima to 0
Setting SaveMinima to 0
 ---------------------------------------
  Cycle       Energy         DIIS Error
 ---------------------------------------
    1    -644.6890501924      5.25E-03
    2    -644.6722288139      7.16E-04
    3    -644.6746443814      2.54E-04
    4    -644.6749605124      1.31E-04
    5    -644.6750154845      3.52E-05
    6    -644.6750244186      1.88E-05
    7    -644.6750267202      6.64E-06
    8    -644.6750270629      2.94E-06
    9    -644.6750271376      1.02E-06
   10    -644.6750271476      4.54E-07
   11    -644.6750271494      1.72E-07
   12    -644.6750271493      7.75E-08
   13    -644.6750271492      2.13E-08
   14    -644.6750271491      8.59E-09 Convergence criterion met
 ---------------------------------------
 SCF time:  CPU 17.22 s  wall 17.33 s
 SCF   energy in the final basis set = -644.6750271491
 Total energy in the final basis set = -644.6750271491
 Analysis of SCF Wavefunction
 
 --------------------------------------------------------------
 
                    Orbital Energies (a.u.)
 --------------------------------------------------------------
 
 Alpha MOs
 -- Occupied --
-20.623 -20.619 -20.570 -20.567 -11.423 -11.413 -11.340 -11.276
-11.269 -11.266 -11.257 -11.254 -11.245  -1.498  -1.487  -1.390
 -1.383  -1.192  -1.074  -1.065  -1.022  -0.926  -0.877  -0.837
 -0.804  -0.735  -0.720  -0.699  -0.693  -0.675  -0.668  -0.648
 -0.636  -0.626  -0.591  -0.585  -0.577  -0.561  -0.537  -0.522
 -0.520  -0.488  -0.471  -0.463  -0.453  -0.366  -0.354
 -- Virtual --
  0.075   0.128   0.172   0.214   0.220   0.234   0.256   0.285
  0.296   0.314   0.321   0.331   0.354   0.369   0.408   0.423
  0.431   0.458   0.488   0.498   0.501   0.539   0.578   0.601
  0.706   0.719   0.743   0.747   0.747   0.760   0.788   0.799
  0.813   0.817   0.842   0.848   0.856   0.862   0.868   0.874
  0.895   0.927   0.951   0.954   0.963   0.995   1.027   1.046
  1.098   1.116   1.130   1.142   1.146   1.154   1.177   1.210
  1.214   1.225   1.230   1.237   1.264   1.267   1.282   1.290
  1.327   1.344   1.349   1.361   1.384   1.436   1.443   1.480
  1.493   1.552   1.564   1.592   1.710   1.729   1.764   1.857
  1.892   2.071   2.124   2.231   2.389   2.412
 --------------------------------------------------------------
 
          Ground-State Mulliken Net Atomic Charges

     Atom                 Charge (a.u.)
  ----------------------------------------
      1 C                    -0.159573
      2 C                    -0.206898
      3 C                    -0.208678
      4 C                    -0.167152
      5 C                    -0.518126
      6 C                    -0.132508
      7 C                     0.426706
      8 O                    -0.556139
      9 O                    -0.544671
     10 O                    -0.753701
     11 C                     0.810072
     12 C                     0.787446
     13 O                    -0.785412
     14 H                     0.447415
     15 H                     0.271134
     16 H                     0.231395
     17 H                     0.218076
     18 H                     0.221010
     19 H                     0.213541
     20 H                     0.203066
     21 H                     0.202996
  ----------------------------------------
  Sum of atomic charges =    -0.000000

 -----------------------------------------------------------------
                    Cartesian Multipole Moments
 -----------------------------------------------------------------
    Charge (ESU x 10^10)
                -0.0000
    Dipole Moment (Debye)
         X      -0.6272      Y       2.1346      Z      -2.1457
       Tot       3.0910
    Quadrupole Moments (Debye-Ang)
        XX     -59.7186     XY       9.3412     YY     -72.0608
        XZ       4.6700     YZ      -0.4073     ZZ     -83.7287
    Octopole Moments (Debye-Ang^2)
       XXX     -21.9314    XXY       6.1854    XYY     -27.9417
       YYY      19.6826    XXZ      -7.6147    XYZ       1.9538
       YYZ      -8.5964    XZZ       0.6768    YZZ     -11.8991
       ZZZ     -14.6147
    Hexadecapole Moments (Debye-Ang^3)
      XXXX   -1507.0849   XXXY     -13.9238   XXYY    -412.8423
      XYYY      90.9437   YYYY    -980.8706   XXXZ      49.6706
      XXYZ       3.1632   XYYZ       2.1849   YYYZ      27.5542
      XXZZ    -354.4509   XYZZ     -10.6238   YYZZ    -201.1047
      XZZZ      33.8136   YZZZ      20.6991   ZZZZ    -206.5358
 -----------------------------------------------------------------
 Calculating analytic gradient of the SCF energy
 Gradient of Coulomb and Exchange Energy
            1           2           3           4           5           6
    1 -10.0136467  -0.6155781 -12.0089640  -7.4799483   8.6167634  -0.9087034
    2   4.3440475 -12.7367739  -2.1373670  -9.7224143  -1.5157408   6.2313362
    3  -1.5241380   2.2376283  -1.2092953   0.2922368   0.7965099   0.6000120
            7           8           9          10          11          12
    1   1.4082783 -11.8028572   2.1556435  11.0592637   3.2755923   9.4964506
    2  -2.4660287  24.3107728  -1.2719853   4.3722810  -1.1595224  -1.9199107
    3   1.7634285  -3.1116069 -26.3265022   2.9974589   0.6004673   8.7384682
           13          14          15          16          17          18
    1   6.7404770   2.6902293  -3.6521264   2.7719054  -5.6799900  -2.8572866
    2  -6.8661569   6.2810789   5.0861044  -5.4675750  -0.2554583  -4.9863138
    3  12.0417389  -0.2664433  -1.1119416   1.2899443  -0.8221455   0.1640306
           19          20          21
    1   1.2285592   3.8468169   1.7291213
    2   3.3074841   0.5086226  -3.9364803
    3   3.4123456  -2.8485638   2.2863674
 Gradient of SCF Energy
            1           2           3           4           5           6
    1  -0.0000386  -0.0010543   0.0003381   0.0000917   0.0000629  -0.0005636
    2  -0.0008279  -0.0004141  -0.0000312   0.0005673   0.0007889  -0.0001504
    3  -0.0010035   0.0016254   0.0001926  -0.0002331  -0.0014622  -0.0035281
            7           8           9          10          11          12
    1   0.0041836   0.0015131   0.0012648  -0.0033791  -0.0012335  -0.0003700
    2   0.0030489  -0.0000438  -0.0014293   0.0008913   0.0000663  -0.0003911
    3   0.0014023  -0.0026066  -0.0034929  -0.0002336   0.0082484   0.0017194
           13          14          15          16          17          18
    1  -0.0022559   0.0018202  -0.0008102   0.0005711  -0.0009411  -0.0005303
    2  -0.0039559   0.0023547   0.0009481  -0.0006370  -0.0001483  -0.0006749
    3  -0.0006853  -0.0006848  -0.0001435   0.0000561   0.0000521  -0.0001450
           19          20          21
    1   0.0002621   0.0010070   0.0000623
    2   0.0005077   0.0000447  -0.0005139
    3   0.0005330  -0.0000128   0.0004021
 Max gradient component =       8.248E-03
 RMS gradient           =       1.769E-03
 Gradient time:  CPU 8.02 s  wall 8.04 s
 Geometry Optimization Parameters
   NAtoms,    NIC,     NZ,  NCons,   NDum,   NFix, NCnnct, MaxDiis
       21     135       0       0       0       0       0       0

 Cartesian Hessian Update
 Hessian Updated using BFGS Update


** GEOMETRY OPTIMIZATION IN DELOCALIZED INTERNAL COORDINATES **
   Searching for a Minimum

   Optimization Cycle:   3

                       Coordinates (Angstroms)
     ATOM                X               Y               Z
      1  C         2.3009896623   -0.3903047159    0.1385350321
      2  C         0.9013743189    1.9463464461   -0.3300451817
      3  C         2.9748935714    0.8154049002    0.1050704741
      4  C         2.2704117368    1.9878060915   -0.1289714312
      5  C        -3.4349994974    0.5395428533   -0.2824264421
      6  C         0.9222207194   -0.4527302912   -0.0591452536
      7  C         0.2399246432    0.7357718758   -0.2998154882
      8  O         0.9512540769   -2.8126492526    0.1924945644
      9  O        -1.8275944383    0.4601049887    1.5159096843
     10  O        -1.0289651373   -1.8449259238   -0.1369395092
     11  C         0.3103413476   -1.7920486502    0.0297261251
     12  C        -2.0880931582    0.5625566566    0.3454537258
     13  O        -1.1188987019    0.7539628087   -0.6009607614
     14  H        -1.3593078397   -2.7362252088   -0.0786910300
     15  H         2.8237726880   -1.3039149131    0.3252148868
     16  H         0.3397692906    2.8352766068   -0.5254228050
     17  H         4.0332280119    0.8404722844    0.2633494568
     18  H         2.7808747182    2.9292015576   -0.1568453478
     19  H        -3.4726566480   -0.2544887637   -1.0136957444
     20  H        -4.1820042541    0.3836906916    0.4776633847
     21  H        -3.6197175350    1.4731651598   -0.7951961689
   Point Group: c1    Number of degrees of freedom:    57


   Energy is   -644.675027149

 Hessian Updated using BFGS Update

 56 Hessian modes will be used to form the next step
  Hessian Eigenvalues:
     0.009253    0.011040    0.011590    0.014609    0.015326    0.018382
     0.020008    0.021207    0.022148    0.022380    0.022750    0.022934
     0.022998    0.023092    0.023276    0.038566    0.072840    0.076716
     0.154833    0.159997    0.160000    0.160000    0.160000    0.160298
     0.172649    0.219796    0.224910    0.226573    0.245487    0.249856
     0.249991    0.249995    0.249999    0.278475    0.285744    0.329056
     0.339984    0.343610    0.345022    0.345803    0.349629    0.351252
     0.351865    0.353052    0.415225    0.421294    0.447238    0.455444
     0.462322    0.465736    0.477536    0.488849    0.509357    0.570728
     0.937621    0.958821

 Minimum Search - Taking Simple RFO Step
 Searching for Lamda that Minimizes Along All modes
 Value Taken    Lamda =  -0.00198521
 Step Taken.  Stepsize is  0.204976

                             Maximum     Tolerance    Cnvgd?
         Gradient           0.011855      0.000300      NO
         Displacement       0.129781      0.001200      NO
         Energy change     -0.000553      0.000001      NO


 New Cartesian Coordinates Obtained by Inverse Iteration

 Displacement from previous Coordinates is:  0.705663
 ----------------------------------------------------------------
             Standard Nuclear Orientation (Angstroms)
    I     Atom           X                Y                Z
 ----------------------------------------------------------------
    1      C       2.2949251780    -0.3989721637     0.1375430072
    2      C       0.8958266908     1.9398679212    -0.3151612155
    3      C       2.9689701026     0.8065518998     0.1147670822
    4      C       2.2648143412     1.9800826985    -0.1141982665
    5      C      -3.4315235706     0.5247147913    -0.2660384578
    6      C       0.9157611148    -0.4639091411    -0.0655853319
    7      C       0.2313871967     0.7302084233    -0.2893338600
    8      O       0.9743697198    -2.8253361537     0.1631808706
    9      O      -1.8562323481     0.7046847820     1.5506780638
   10      O      -1.0106248800    -1.8894223489    -0.2029100712
   11      C       0.3239257769    -1.8158286697    -0.0263817014
   12      C      -2.0976849932     0.6485286439     0.3733382612
   13      O      -1.1246286812     0.7684558912    -0.5767012684
   14      H      -1.3309176762    -2.7808326405    -0.1396936997
   15      H       2.8161420998    -1.3164548054     0.3066757331
   16      H       0.3309970433     2.8287650460    -0.4982964966
   17      H       4.0271967217     0.8307498855     0.2706649009
   18      H       2.7742951077     2.9218098918    -0.1343992825
   19      H      -3.4407493223    -0.3494006044    -0.9001738244
   20      H      -4.1901068360     0.4490419692     0.4932013146
   21      H      -3.6193252102     1.3827098852    -0.8959135871
 ----------------------------------------------------------------
 Molecular Point Group                 C1    NOp =  1
 Largest Abelian Subgroup              C1    NOp =  1
 Nuclear Repulsion Energy =   785.4335300856 hartrees
 There are       47 alpha and       47 beta electrons
 Applying Cartesian multipole field
    Component          Value
    ---------          -----
     (2,0,0)        1.00000E-11
     (0,2,0)        2.00000E-11
     (0,0,2)       -3.00000E-11
 Nucleus-field energy     =     0.0000000246 hartrees
 Requested basis set is 6-31G
 There are 55 shells and 133 basis functions
 A cutoff of  1.0D-11 yielded   1248 shell pairs
 There are      8217 function pairs
 Smallest overlap matrix eigenvalue = 4.95E-04
 Guess MOs from SCF MO coefficient file
 Reading MOs from coefficient file
 Reading MOs from coefficient file
 A restricted Hartree-Fock SCF calculation will be
 performed using Pulay DIIS extrapolation
 SCF converges when DIIS error is below 1.0E-08
Geometry optimization detected.  Setting ReadMinima to 0
Setting SaveMinima to 0
 ---------------------------------------
  Cycle       Energy         DIIS Error
 ---------------------------------------
    1    -644.6552086105      4.25E-03
    2    -644.6730178912      6.54E-04
    3    -644.6749921441      2.22E-04
    4    -644.6752394116      1.04E-04
    5    -644.6752761534      3.83E-05
    6    -644.6752833786      1.72E-05
    7    -644.6752855700      4.54E-06
    8    -644.6752856719      1.88E-06
    9    -644.6752856938      6.27E-07
   10    -644.6752856969      3.49E-07
   11    -644.6752856982      1.47E-07
   12    -644.6752856987      5.88E-08
   13    -644.6752856987      1.55E-08
   14    -644.6752856980      6.27E-09 Convergence criterion met
 ---------------------------------------
 SCF time:  CPU 16.77 s  wall 17.04 s
 SCF   energy in the final basis set = -644.6752856980
 Total energy in the final basis set = -644.6752856980
 Analysis of SCF Wavefunction
 
 --------------------------------------------------------------
 
                    Orbital Energies (a.u.)
 --------------------------------------------------------------
 
 Alpha MOs
 -- Occupied --
-20.626 -20.620 -20.571 -20.569 -11.425 -11.414 -11.341 -11.278
-11.269 -11.266 -11.256 -11.254 -11.244  -1.500  -1.491  -1.393
 -1.385  -1.192  -1.074  -1.066  -1.023  -0.927  -0.879  -0.838
 -0.806  -0.736  -0.719  -0.700  -0.694  -0.677  -0.669  -0.649
 -0.637  -0.626  -0.592  -0.587  -0.577  -0.562  -0.538  -0.524
 -0.520  -0.487  -0.472  -0.465  -0.455  -0.366  -0.354
 -- Virtual --
  0.074   0.128   0.169   0.212   0.219   0.234   0.257   0.286
  0.297   0.314   0.321   0.332   0.352   0.371   0.407   0.421
  0.429   0.458   0.483   0.499   0.500   0.541   0.577   0.599
  0.706   0.715   0.738   0.746   0.749   0.757   0.786   0.799
  0.813   0.816   0.841   0.847   0.856   0.861   0.867   0.874
  0.891   0.925   0.947   0.954   0.964   0.997   1.026   1.044
  1.095   1.116   1.129   1.138   1.145   1.158   1.178   1.210
  1.213   1.224   1.231   1.240   1.264   1.272   1.274   1.285
  1.304   1.340   1.347   1.363   1.384   1.432   1.441   1.486
  1.497   1.534   1.566   1.595   1.703   1.716   1.761   1.821
  1.891   2.071   2.124   2.221   2.368   2.414
 --------------------------------------------------------------
 
          Ground-State Mulliken Net Atomic Charges

     Atom                 Charge (a.u.)
  ----------------------------------------
      1 C                    -0.162352
      2 C                    -0.207697
      3 C                    -0.207451
      4 C                    -0.166214
      5 C                    -0.518701
      6 C                    -0.135260
      7 C                     0.434996
      8 O                    -0.555289
      9 O                    -0.536463
     10 O                    -0.746476
     11 C                     0.804564
     12 C                     0.771066
     13 O                    -0.785797
     14 H                     0.445983
     15 H                     0.271854
     16 H                     0.231781
     17 H                     0.218334
     18 H                     0.221215
     19 H                     0.215086
     20 H                     0.202334
     21 H                     0.204487
  ----------------------------------------
  Sum of atomic charges =    -0.000000

 -----------------------------------------------------------------
                    Cartesian Multipole Moments
 -----------------------------------------------------------------
    Charge (ESU x 10^10)
                -0.0000
    Dipole Moment (Debye)
         X      -0.5674      Y       1.7598      Z      -2.2226
       Tot       2.8911
    Quadrupole Moments (Debye-Ang)
        XX     -60.1280     XY      10.0629     YY     -72.2681
        XZ       4.7680     YZ      -1.2301     ZZ     -83.8971
    Octopole Moments (Debye-Ang^2)
       XXX     -20.9488    XXY       4.5880    XYY     -27.4230
       YYY      15.3802    XXZ      -7.9699    XYZ       3.8763
       YYZ      -9.8489    XZZ       1.2754    YZZ     -14.5175
       ZZZ     -15.3753
    Hexadecapole Moments (Debye-Ang^3)
      XXXX   -1509.5802   XXXY       0.3661   XXYY    -419.5637
      XYYY     107.6733   YYYY    -998.0842   XXXZ      52.8731
      XXYZ      -4.7180   XYYZ       6.6010   YYYZ      13.7169
      XXZZ    -355.8705   XYZZ      -3.6502   YYZZ    -206.6799
      XZZZ      37.5509   YZZZ       2.4769   ZZZZ    -210.4590
 -----------------------------------------------------------------
 Calculating analytic gradient of the SCF energy
 Gradient of Coulomb and Exchange Energy
            1           2           3           4           5           6
    1  -9.8436638  -0.6993515 -11.9965647  -7.5384139   8.6289162  -0.6960804
    2   4.3162182 -12.6237262  -2.1228161  -9.6562678  -1.3555882   6.3235375
    3  -1.6001530   2.2838823  -1.3324567   0.3001494   0.7172668   0.2014185
            7           8           9          10          11          12
    1   1.4252286 -11.8804977   2.1955658  11.1783961   3.2746399   9.1459626
    2  -2.0981074  24.0245660  -3.9604318   4.4145524  -1.1488328  -0.5160853
    3   1.6007243  -3.3388508 -26.0287540   3.1934958   1.5117158   8.4376720
           13          14          15          16          17          18
    1   6.7889202   2.6383150  -3.6305013   2.8063655  -5.6836653  -2.8540013
    2  -6.5394345   6.2473110   5.1183075  -5.4888163  -0.2517532  -4.9949129
    3  11.8316629  -0.3062520  -1.0018574   1.2302319  -0.8046716   0.1185906
           19          20          21
    1   1.1206578   3.8763616   1.7434105
    2   3.6666395   0.2264666  -3.5808261
    3   3.0225884  -2.8490687   2.8126654
 Gradient of SCF Energy
            1           2           3           4           5           6
    1   0.0006832  -0.0023667   0.0008417   0.0005927   0.0007207  -0.0005059
    2  -0.0007573   0.0006137   0.0000373   0.0002769   0.0015833  -0.0012682
    3   0.0004372  -0.0003325   0.0001776  -0.0004023   0.0000931   0.0007058
            7           8           9          10          11          12
    1  -0.0001152   0.0005520  -0.0005804  -0.0010008  -0.0011999   0.0016492
    2   0.0012835   0.0011416   0.0026451  -0.0058010  -0.0022608  -0.0043331
    3   0.0004022   0.0007818  -0.0045189   0.0000283  -0.0018571   0.0026669
           13          14          15          16          17          18
    1  -0.0010633   0.0026212  -0.0013775   0.0003563  -0.0012498  -0.0007999
    2   0.0023658   0.0055943   0.0008140  -0.0010772  -0.0000618  -0.0008532
    3   0.0029602  -0.0001181  -0.0004982   0.0002146  -0.0002696   0.0000764
           19          20          21
    1   0.0004748   0.0016340   0.0001335
    2   0.0010961   0.0001698  -0.0012089
    3  -0.0000886  -0.0003561  -0.0001030
 Max gradient component =       5.801E-03
 RMS gradient           =       1.717E-03
 Gradient time:  CPU 8.08 s  wall 8.11 s
 Geometry Optimization Parameters
   NAtoms,    NIC,     NZ,  NCons,   NDum,   NFix, NCnnct, MaxDiis
       21     135       0       0       0       0       0       0

 Cartesian Hessian Update
 Hessian Updated using BFGS Update


** GEOMETRY OPTIMIZATION IN DELOCALIZED INTERNAL COORDINATES **
   Searching for a Minimum

   Optimization Cycle:   4

                       Coordinates (Angstroms)
     ATOM                X               Y               Z
      1  C         2.2949251780   -0.3989721637    0.1375430072
      2  C         0.8958266908    1.9398679212   -0.3151612155
      3  C         2.9689701026    0.8065518998    0.1147670822
      4  C         2.2648143412    1.9800826985   -0.1141982665
      5  C        -3.4315235706    0.5247147913   -0.2660384578
      6  C         0.9157611148   -0.4639091411   -0.0655853319
      7  C         0.2313871967    0.7302084233   -0.2893338600
      8  O         0.9743697198   -2.8253361537    0.1631808706
      9  O        -1.8562323481    0.7046847820    1.5506780638
     10  O        -1.0106248800   -1.8894223489   -0.2029100712
     11  C         0.3239257769   -1.8158286697   -0.0263817014
     12  C        -2.0976849932    0.6485286439    0.3733382612
     13  O        -1.1246286812    0.7684558912   -0.5767012684
     14  H        -1.3309176762   -2.7808326405   -0.1396936997
     15  H         2.8161420998   -1.3164548054    0.3066757331
     16  H         0.3309970433    2.8287650460   -0.4982964966
     17  H         4.0271967217    0.8307498855    0.2706649009
     18  H         2.7742951077    2.9218098918   -0.1343992825
     19  H        -3.4407493223   -0.3494006044   -0.9001738244
     20  H        -4.1901068360    0.4490419692    0.4932013146
     21  H        -3.6193252102    1.3827098852   -0.8959135871
   Point Group: c1    Number of degrees of freedom:    57


   Energy is   -644.675285698

 Hessian Updated using BFGS Update

 57 Hessian modes will be used to form the next step
  Hessian Eigenvalues:
     0.009248    0.011360    0.011621    0.014812    0.015775    0.018437
     0.020765    0.021225    0.022152    0.022420    0.022748    0.022940
     0.023006    0.023089    0.023276    0.048649    0.073177    0.076722
     0.156329    0.159765    0.159997    0.160000    0.160000    0.160000
     0.160033    0.172362    0.219973    0.225110    0.233666    0.244829
     0.248039    0.249861    0.249992    0.249998    0.280465    0.321601
     0.328144    0.339584    0.344662    0.345100    0.347457    0.349947
     0.351291    0.351958    0.354738    0.415158    0.426263    0.440506
     0.457048    0.465716    0.466836    0.467664    0.486788    0.505317
     0.572460    0.933633    0.958938

 Minimum Search - Taking Simple RFO Step
 Searching for Lamda that Minimizes Along All modes
 Value Taken    Lamda =  -0.00092997
 Step Taken.  Stepsize is  0.151846

                             Maximum     Tolerance    Cnvgd?
         Gradient           0.006318      0.000300      NO
         Displacement       0.107698      0.001200      NO
         Energy change     -0.000259      0.000001      NO


 New Cartesian Coordinates Obtained by Inverse Iteration

 Displacement from previous Coordinates is:  0.315549
 ----------------------------------------------------------------
             Standard Nuclear Orientation (Angstroms)
    I     Atom           X                Y                Z
 ----------------------------------------------------------------
    1      C       2.2969059380    -0.3952365223     0.1455707759
    2      C       0.9125005580     1.9468110602    -0.3359336841
    3      C       2.9769255694     0.8076480387     0.1226410237
    4      C       2.2800949677     1.9827716004    -0.1201464632
    5      C      -3.4375390109     0.5103664701    -0.2619240907
    6      C       0.9182759619    -0.4540276580    -0.0708863838
    7      C       0.2380041939     0.7398135354    -0.3067010415
    8      O       0.9426627632    -2.8186226836     0.1769811053
    9      O      -1.8409387709     0.6190222051     1.5438028693
   10      O      -1.0258724938    -1.8566604071    -0.1976384683
   11      C       0.3117289595    -1.7996213252    -0.0287827937
   12      C      -2.0945712617     0.6505255243     0.3651788268
   13      O      -1.1223641062     0.7807451929    -0.5932888570
   14      H      -1.3633371728    -2.7486665036    -0.1259770381
   15      H       2.8183986444    -1.3129731736     0.3291102065
   16      H       0.3554406756     2.8411437536    -0.5286586965
   17      H       4.0357335257     0.8286121700     0.2906644477
   18      H       2.7965648988     2.9230349066    -0.1409734412
   19      H      -3.4337712503    -0.3413842160    -0.9284752007
   20      H      -4.1882142122     0.3819354066     0.5018450561
   21      H      -3.6598108021     1.3907778271    -0.8511459819
 ----------------------------------------------------------------
 Molecular Point Group                 C1    NOp =  1
 Largest Abelian Subgroup              C1    NOp =  1
 Nuclear Repulsion Energy =   785.6484556278 hartrees
 There are       47 alpha and       47 beta electrons
 Applying Cartesian multipole field
    Component          Value
    ---------          -----
     (2,0,0)        1.00000E-11
     (0,2,0)        2.00000E-11
     (0,0,2)       -3.00000E-11
 Nucleus-field energy     =     0.0000000245 hartrees
 Requested basis set is 6-31G
 There are 55 shells and 133 basis functions
 A cutoff of  1.0D-11 yielded   1247 shell pairs
 There are      8216 function pairs
 Smallest overlap matrix eigenvalue = 4.99E-04
 Guess MOs from SCF MO coefficient file
 Reading MOs from coefficient file
 Reading MOs from coefficient file
 A restricted Hartree-Fock SCF calculation will be
 performed using Pulay DIIS extrapolation
 SCF converges when DIIS error is below 1.0E-08
Geometry optimization detected.  Setting ReadMinima to 0
Setting SaveMinima to 0
 ---------------------------------------
  Cycle       Energy         DIIS Error
 ---------------------------------------
    1    -644.6391722556      2.17E-03
    2    -644.6747234476      3.44E-04
    3    -644.6752568438      1.20E-04
    4    -644.6753190916      6.46E-05
    5    -644.6753308330      1.72E-05
    6    -644.6753323855      8.44E-06
    7    -644.6753328828      2.70E-06
    8    -644.6753329143      8.00E-07
    9    -644.6753329181      2.27E-07
   10    -644.6753329185      1.21E-07
   11    -644.6753329184      5.47E-08
   12    -644.6753329187      2.55E-08
   13    -644.6753329185      8.68E-09 Convergence criterion met
 ---------------------------------------
 SCF time:  CPU 15.46 s  wall 15.55 s
 SCF   energy in the final basis set = -644.6753329185
 Total energy in the final basis set = -644.6753329185
 Analysis of SCF Wavefunction
 
 --------------------------------------------------------------
 
                    Orbital Energies (a.u.)
 --------------------------------------------------------------
 
 Alpha MOs
 -- Occupied --
-20.624 -20.620 -20.570 -20.570 -11.424 -11.415 -11.342 -11.278
-11.269 -11.267 -11.257 -11.255 -11.245  -1.498  -1.487  -1.391
 -1.382  -1.191  -1.073  -1.064  -1.022  -0.925  -0.877  -0.837
 -0.804  -0.735  -0.718  -0.699  -0.693  -0.675  -0.668  -0.648
 -0.636  -0.626  -0.591  -0.585  -0.576  -0.562  -0.538  -0.523
 -0.519  -0.486  -0.471  -0.464  -0.455  -0.366  -0.354
 -- Virtual --
  0.074   0.127   0.168   0.211   0.220   0.233   0.257   0.285
  0.295   0.313   0.319   0.330   0.352   0.371   0.406   0.420
  0.429   0.457   0.484   0.498   0.499   0.539   0.577   0.598
  0.705   0.716   0.739   0.746   0.748   0.758   0.786   0.797
  0.813   0.815   0.841   0.845   0.855   0.861   0.868   0.873
  0.892   0.924   0.946   0.952   0.961   0.997   1.025   1.045
  1.093   1.115   1.129   1.136   1.145   1.157   1.175   1.208
  1.212   1.223   1.230   1.237   1.263   1.272   1.277   1.290
  1.307   1.341   1.345   1.361   1.384   1.434   1.437   1.483
  1.492   1.542   1.566   1.592   1.705   1.713   1.759   1.836
  1.889   2.071   2.118   2.222   2.375   2.416
 --------------------------------------------------------------
 
          Ground-State Mulliken Net Atomic Charges

     Atom                 Charge (a.u.)
  ----------------------------------------
      1 C                    -0.160307
      2 C                    -0.209003
      3 C                    -0.209159
      4 C                    -0.165683
      5 C                    -0.518447
      6 C                    -0.134665
      7 C                     0.433874
      8 O                    -0.555948
      9 O                    -0.539349
     10 O                    -0.751167
     11 C                     0.806354
     12 C                     0.777671
     13 O                    -0.786994
     14 H                     0.447922
     15 H                     0.271709
     16 H                     0.231225
     17 H                     0.218844
     18 H                     0.221694
     19 H                     0.217055
     20 H                     0.203123
     21 H                     0.201251
  ----------------------------------------
  Sum of atomic charges =    -0.000000

 -----------------------------------------------------------------
                    Cartesian Multipole Moments
 -----------------------------------------------------------------
    Charge (ESU x 10^10)
                 0.0000
    Dipole Moment (Debye)
         X      -0.5776      Y       1.9317      Z      -2.2026
       Tot       2.9860
    Quadrupole Moments (Debye-Ang)
        XX     -59.6152     XY       9.7669     YY     -72.2806
        XZ       4.6775     YZ      -0.7879     ZZ     -83.9393
    Octopole Moments (Debye-Ang^2)
       XXX     -21.5994    XXY       4.3268    XYY     -27.3567
       YYY      16.4918    XXZ      -7.0145    XYZ       3.0626
       YYZ      -9.2926    XZZ       1.2208    YZZ     -13.9887
       ZZZ     -14.4577
    Hexadecapole Moments (Debye-Ang^3)
      XXXX   -1509.5099   XXXY      -6.4663   XXYY    -415.5705
      XYYY      97.7061   YYYY    -992.3402   XXXZ      52.3318
      XXYZ      -1.8313   XYYZ       4.7474   YYYZ      18.6742
      XXZZ    -356.7377   XYZZ      -7.0641   YYZZ    -204.7531
      XZZZ      35.9262   YZZZ       8.5587   ZZZZ    -211.2376
 -----------------------------------------------------------------
 Calculating analytic gradient of the SCF energy
 Gradient of Coulomb and Exchange Energy
            1           2           3           4           5           6
    1  -9.8156040  -0.7099563 -12.0130783  -7.5389031   8.6217922  -0.8258828
    2   4.3925637 -12.4864490  -2.0809708  -9.6526334  -1.1621916   6.2243151
    3  -1.6577412   2.4452702  -1.4239063   0.2594261   0.6434252   0.2035997
            7           8           9          10          11          12
    1   1.4309552 -11.5322604   2.1574647  11.0288177   3.1003504   9.1663972
    2  -2.3030096  24.2466694  -2.6341674   4.4300576  -1.2774393  -2.0608778
    3   1.7466125  -3.5576054 -26.1305094   3.2359352   1.8109384   8.5628883
           13          14          15          16          17          18
    1   6.8197424   2.7442445  -3.6417420   2.7409463  -5.6708311  -2.8899236
    2  -6.6070983   6.1790921   5.0873351  -5.4896091  -0.2367757  -4.9646475
    3  11.8705114  -0.3453055  -1.0926163   1.2785023  -0.8652642   0.1210045
           19          20          21
    1   1.1130946   3.8789146   1.8354618
    2   3.6047857   0.4427230  -3.6516723
    3   3.1653386  -2.8342377   2.5637335
 Gradient of SCF Energy
            1           2           3           4           5           6
    1   0.0000032  -0.0000728  -0.0001402   0.0004917   0.0002578  -0.0002905
    2   0.0001834  -0.0000445   0.0004813  -0.0003159  -0.0036670   0.0001269
    3   0.0003701  -0.0004379  -0.0002025   0.0003371   0.0004351   0.0013587
            7           8           9          10          11          12
    1  -0.0000310  -0.0010643  -0.0000841   0.0010121   0.0009903  -0.0007500
    2  -0.0005802  -0.0001225  -0.0034389   0.0008653   0.0000122   0.0106788
    3   0.0000097   0.0020095   0.0018771   0.0014034  -0.0054333  -0.0005116
           13          14          15          16          17          18
    1   0.0002909  -0.0009588   0.0005078  -0.0001559   0.0005398   0.0003184
    2  -0.0025126  -0.0016229  -0.0003974   0.0004007   0.0000547   0.0003787
    3  -0.0012270   0.0001026   0.0001225  -0.0000141  -0.0000173   0.0000683
           19          20          21
    1  -0.0008303  -0.0007309   0.0006967
    2  -0.0003886  -0.0004109   0.0003195
    3  -0.0006003   0.0000289   0.0003210
 Max gradient component =       1.068E-02
 RMS gradient           =       1.791E-03
 Gradient time:  CPU 8.05 s  wall 8.06 s
 Geometry Optimization Parameters
   NAtoms,    NIC,     NZ,  NCons,   NDum,   NFix, NCnnct, MaxDiis
       21     135       0       0       0       0       0       0

 Cartesian Hessian Update
 Hessian Updated using BFGS Update


** GEOMETRY OPTIMIZATION IN DELOCALIZED INTERNAL COORDINATES **
   Searching for a Minimum

   Optimization Cycle:   5

                       Coordinates (Angstroms)
     ATOM                X               Y               Z
      1  C         2.2969059380   -0.3952365223    0.1455707759
      2  C         0.9125005580    1.9468110602   -0.3359336841
      3  C         2.9769255694    0.8076480387    0.1226410237
      4  C         2.2800949677    1.9827716004   -0.1201464632
      5  C        -3.4375390109    0.5103664701   -0.2619240907
      6  C         0.9182759619   -0.4540276580   -0.0708863838
      7  C         0.2380041939    0.7398135354   -0.3067010415
      8  O         0.9426627632   -2.8186226836    0.1769811053
      9  O        -1.8409387709    0.6190222051    1.5438028693
     10  O        -1.0258724938   -1.8566604071   -0.1976384683
     11  C         0.3117289595   -1.7996213252   -0.0287827937
     12  C        -2.0945712617    0.6505255243    0.3651788268
     13  O        -1.1223641062    0.7807451929   -0.5932888570
     14  H        -1.3633371728   -2.7486665036   -0.1259770381
     15  H         2.8183986444   -1.3129731736    0.3291102065
     16  H         0.3554406756    2.8411437536   -0.5286586965
     17  H         4.0357335257    0.8286121700    0.2906644477
     18  H         2.7965648988    2.9230349066   -0.1409734412
     19  H        -3.4337712503   -0.3413842160   -0.9284752007
     20  H        -4.1882142122    0.3819354066    0.5018450561
     21  H        -3.6598108021    1.3907778271   -0.8511459819
   Point Group: c1    Number of degrees of freedom:    57


   Energy is   -644.675332918

 Hessian Updated using BFGS Update

 57 Hessian modes will be used to form the next step
  Hessian Eigenvalues:
     0.009224    0.011503    0.014399    0.014733    0.018149    0.019269
     0.021169    0.022132    0.022349    0.022746    0.022927    0.022980
     0.023073    0.023274    0.031114    0.045472    0.072892    0.076970
     0.155041    0.159589    0.159997    0.160000    0.160000    0.160009
     0.165108    0.173417    0.219952    0.225250    0.233579    0.244264
     0.248937    0.249932    0.249992    0.254392    0.279503    0.306046
     0.324176    0.339813    0.342779    0.344940    0.345348    0.348533
     0.350488    0.351369    0.351959    0.414910    0.423460    0.444501
     0.455431    0.461834    0.465939    0.469095    0.486247    0.501119
     0.570709    0.935036    0.958783

 Minimum Search - Taking Simple RFO Step
 Searching for Lamda that Minimizes Along All modes
 Value Taken    Lamda =  -0.00101813
 Step Taken.  Stepsize is  0.181027

                             Maximum     Tolerance    Cnvgd?
         Gradient           0.004179      0.000300      NO
         Displacement       0.096189      0.001200      NO
         Energy change     -0.000047      0.000001      NO


 New Cartesian Coordinates Obtained by Inverse Iteration

 Displacement from previous Coordinates is:  0.419398
 ----------------------------------------------------------------
             Standard Nuclear Orientation (Angstroms)
    I     Atom           X                Y                Z
 ----------------------------------------------------------------
    1      C       2.3079426888    -0.3889386865     0.1596542396
    2      C       0.9036083280     1.9343037182    -0.3521253131
    3      C       2.9766032800     0.8199702418     0.1277851680
    4      C       2.2696080406     1.9857723453    -0.1301016068
    5      C      -3.4539621436     0.5510841321    -0.2586781557
    6      C       0.9307260747    -0.4613484307    -0.0606615893
    7      C       0.2387946702     0.7211613170    -0.3130260074
    8      O       0.9680239991    -2.8279169341     0.1779632994
    9      O      -1.8385211941     0.5351739877     1.5348461541
   10      O      -1.0045928157    -1.8741353764    -0.1999083127
   11      C       0.3295925538    -1.8079791859     0.0006911831
   12      C      -2.0958266527     0.5796380073     0.3562906830
   13      O      -1.1243297757     0.7421871870    -0.6027442558
   14      H      -1.3393567691    -2.7725207911    -0.1459099126
   15      H       2.8399120857    -1.2986163408     0.3592588047
   16      H       0.3406045907     2.8231238044    -0.5579996670
   17      H       4.0350607226     0.8528848101     0.3023862689
   18      H       2.7785293637     2.9308997489    -0.1591078292
   19      H      -3.5146612320    -0.2826841991    -0.9455588416
   20      H      -4.2050727039     0.4512647601     0.5106993809
   21      H      -3.6258655355     1.4626910863    -0.8184915199
 ----------------------------------------------------------------
 Molecular Point Group                 C1    NOp =  1
 Largest Abelian Subgroup              C1    NOp =  1
 Nuclear Repulsion Energy =   785.4864648391 hartrees
 There are       47 alpha and       47 beta electrons
 Applying Cartesian multipole field
    Component          Value
    ---------          -----
     (2,0,0)        1.00000E-11
     (0,2,0)        2.00000E-11
     (0,0,2)       -3.00000E-11
 Nucleus-field energy     =     0.0000000245 hartrees
 Requested basis set is 6-31G
 There are 55 shells and 133 basis functions
 A cutoff of  1.0D-11 yielded   1247 shell pairs
 There are      8216 function pairs
 Smallest overlap matrix eigenvalue = 4.99E-04
 Guess MOs from SCF MO coefficient file
 Reading MOs from coefficient file
 Reading MOs from coefficient file
 A restricted Hartree-Fock SCF calculation will be
 performed using Pulay DIIS extrapolation
 SCF converges when DIIS error is below 1.0E-08
Geometry optimization detected.  Setting ReadMinima to 0
Setting SaveMinima to 0
 ---------------------------------------
  Cycle       Energy         DIIS Error
 ---------------------------------------
    1    -644.6615561152      1.68E-03
    2    -644.6749371325      2.68E-04
    3    -644.6752883568      9.11E-05
    4    -644.6753326168      4.39E-05
    5    -644.6753385572      1.29E-05
    6    -644.6753399065      6.40E-06
    7    -644.6753401688      2.49E-06
    8    -644.6753402242      1.08E-06
    9    -644.6753402344      3.98E-07
   10    -644.6753402362      1.61E-07
   11    -644.6753402365      6.17E-08
   12    -644.6753402369      2.33E-08
   13    -644.6753402365      8.89E-09 Convergence criterion met
 ---------------------------------------
 SCF time:  CPU 15.53 s  wall 15.84 s
 SCF   energy in the final basis set = -644.6753402365
 Total energy in the final basis set = -644.6753402365
 Analysis of SCF Wavefunction
 
 --------------------------------------------------------------
 
                    Orbital Energies (a.u.)
 --------------------------------------------------------------
 
 Alpha MOs
 -- Occupied --
-20.623 -20.620 -20.570 -20.569 -11.423 -11.416 -11.342 -11.278
-11.269 -11.267 -11.258 -11.255 -11.247  -1.496  -1.485  -1.390
 -1.381  -1.191  -1.073  -1.063  -1.022  -0.924  -0.876  -0.836
 -0.803  -0.734  -0.718  -0.699  -0.692  -0.674  -0.667  -0.647
 -0.635  -0.626  -0.591  -0.584  -0.577  -0.561  -0.538  -0.522
 -0.520  -0.486  -0.471  -0.463  -0.454  -0.366  -0.354
 -- Virtual --
  0.074   0.127   0.169   0.211   0.220   0.232   0.255   0.284
  0.294   0.313   0.320   0.329   0.349   0.371   0.405   0.421
  0.429   0.458   0.484   0.498   0.498   0.538   0.577   0.599
  0.705   0.717   0.739   0.746   0.749   0.759   0.788   0.799
  0.812   0.814   0.841   0.847   0.855   0.861   0.867   0.874
  0.893   0.926   0.949   0.951   0.960   0.991   1.026   1.046
  1.094   1.114   1.128   1.139   1.143   1.155   1.177   1.206
  1.212   1.224   1.228   1.237   1.262   1.266   1.279   1.288
  1.313   1.341   1.343   1.361   1.383   1.432   1.441   1.481
  1.492   1.545   1.562   1.590   1.706   1.723   1.761   1.835
  1.883   2.071   2.118   2.225   2.379   2.416
 --------------------------------------------------------------
 
          Ground-State Mulliken Net Atomic Charges

     Atom                 Charge (a.u.)
  ----------------------------------------
      1 C                    -0.158180
      2 C                    -0.210279
      3 C                    -0.210471
      4 C                    -0.165434
      5 C                    -0.519120
      6 C                    -0.133545
      7 C                     0.432757
      8 O                    -0.556476
      9 O                    -0.542336
     10 O                    -0.754690
     11 C                     0.807224
     12 C                     0.783515
     13 O                    -0.786942
     14 H                     0.449093
     15 H                     0.271561
     16 H                     0.231012
     17 H                     0.218974
     18 H                     0.221906
     19 H                     0.213107
     20 H                     0.204336
     21 H                     0.203990
  ----------------------------------------
  Sum of atomic charges =    -0.000000

 -----------------------------------------------------------------
                    Cartesian Multipole Moments
 -----------------------------------------------------------------
    Charge (ESU x 10^10)
                -0.0000
    Dipole Moment (Debye)
         X      -0.6389      Y       2.0567      Z      -2.1468
       Tot       3.0409
    Quadrupole Moments (Debye-Ang)
        XX     -59.5051     XY       9.6048     YY     -72.1687
        XZ       4.7496     YZ      -0.6591     ZZ     -83.9122
    Octopole Moments (Debye-Ang^2)
       XXX     -23.4452    XXY       6.4922    XYY     -28.4287
       YYY      19.0597    XXZ      -6.8220    XYZ       2.3048
       YYZ      -9.3630    XZZ       1.0050    YZZ     -12.3297
       ZZZ     -14.1884
    Hexadecapole Moments (Debye-Ang^3)
      XXXX   -1511.4278   XXXY      -8.1109   XXYY    -417.1782
      XYYY     100.1247   YYYY    -989.7854   XXXZ      51.6479
      XXYZ       0.9101   XYYZ       4.0594   YYYZ      23.2238
      XXZZ    -357.4063   XYZZ      -7.9883   YYZZ    -203.5294
      XZZZ      34.1208   YZZZ      14.0826   ZZZZ    -211.1796
 -----------------------------------------------------------------
 Calculating analytic gradient of the SCF energy
 Gradient of Coulomb and Exchange Energy
            1           2           3           4           5           6
    1  -9.8670306  -0.6076059 -12.0000016  -7.4341267   8.5581629  -0.9515176
    2   4.3273771 -12.4327097  -2.2135025  -9.7400682  -1.5338772   6.1386683
    3  -1.7384170   2.5931067  -1.4420872   0.2905835   0.6221787   0.3345747
            7           8           9          10          11          12
    1   1.4596020 -11.6911123   2.1672975  10.9402165   3.2065110   9.1951703
    2  -2.3167556  24.2573888  -2.1357910   4.5337652  -1.3425511  -1.2673161
    3   1.8091112  -3.2972122 -26.1366564   3.4086673   0.9817542   8.7102875
           13          14          15          16          17          18
    1   6.8788736   2.7169427  -3.7035890   2.7667656  -5.6598170  -2.8518734
    2  -6.6429057   6.1785804   5.0155215  -5.4464979  -0.3001928  -4.9820440
    3  11.8976866  -0.2195366  -1.1943459   1.3525210  -0.9031367   0.1661626
           19          20          21
    1   1.3128865   3.8733394   1.6909061
    2   3.4674042   0.2827971  -3.8472907
    3   3.1505892  -2.8325171   2.4466861
 Gradient of SCF Energy
            1           2           3           4           5           6
    1  -0.0006466   0.0017318  -0.0008748   0.0001082  -0.0011234   0.0004701
    2   0.0006259  -0.0008342   0.0004789  -0.0004682   0.0017169   0.0007779
    3  -0.0005558   0.0003561  -0.0001653   0.0005994   0.0001730  -0.0020618
            7           8           9          10          11          12
    1   0.0011389  -0.0006172  -0.0000127   0.0021297   0.0003373  -0.0008168
    2  -0.0000532  -0.0012663   0.0013312   0.0045544   0.0028380  -0.0051092
    3  -0.0000941  -0.0021477   0.0042524  -0.0016563   0.0055354  -0.0022754
           13          14          15          16          17          18
    1   0.0001431  -0.0028298   0.0013844  -0.0003178   0.0012768   0.0008276
    2  -0.0008651  -0.0053803  -0.0008037   0.0010642   0.0000741   0.0008655
    3  -0.0032293   0.0001124   0.0005208  -0.0001888   0.0002209  -0.0000342
[...]
     21  H        -3.6243072678    1.4187930872   -0.8415363024
   Point Group: c1    Number of degrees of freedom:    57


   Energy is   -644.675704686

 Hessian Updated using BFGS Update

 57 Hessian modes will be used to form the next step
  Hessian Eigenvalues:
     0.001324    0.010276    0.015473    0.018323    0.020345    0.021382
     0.022152    0.022466    0.022761    0.022940    0.023002    0.023211
     0.023291    0.051542    0.053267    0.073091    0.076838    0.078106
     0.157914    0.159977    0.159998    0.160028    0.160035    0.162779
     0.168690    0.175815    0.220037    0.225624    0.236767    0.245298
     0.248119    0.250316    0.250667    0.276539    0.285399    0.329103
     0.341112    0.344691    0.345498    0.347745    0.349441    0.351284
     0.351955    0.359977    0.394708    0.416030    0.442590    0.457419
     0.463906    0.465593    0.486391    0.498066    0.565166    0.571017
     0.644237    0.950371    0.965219

 Minimum Search - Taking Simple RFO Step
 Searching for Lamda that Minimizes Along All modes
 Value Taken    Lamda =  -0.00000291
 Step Taken.  Stepsize is  0.041315

                             Maximum     Tolerance    Cnvgd?
         Gradient           0.000226      0.000300     YES
         Displacement       0.016323      0.001200      NO
         Energy change     -0.000003      0.000001      NO


 New Cartesian Coordinates Obtained by Inverse Iteration

 Displacement from previous Coordinates is:  0.060475
 ----------------------------------------------------------------
             Standard Nuclear Orientation (Angstroms)
    I     Atom           X                Y                Z
 ----------------------------------------------------------------
    1      C       2.2952525691    -0.3888464359     0.1562282881
    2      C       0.9108716788     1.9484585633    -0.3434404574
    3      C       2.9760296554     0.8124366569     0.1170107034
    4      C       2.2789636472     1.9854178813    -0.1368598179
    5      C      -3.4389202801     0.5258688191    -0.2599525186
    6      C       0.9164780287    -0.4490819485    -0.0545668378
    7      C       0.2362384196     0.7424639098    -0.2988838468
    8      O       0.9420291439    -2.8081855487     0.2297183739
    9      O      -1.8387255679     0.5149172601     1.5456397768
   10      O      -1.0159862128    -1.8595804680    -0.2349180367
   11      C       0.3116270073    -1.7942027564     0.0001004058
   12      C      -2.0931758537     0.5917359212     0.3701963721
   13      O      -1.1241692234     0.7886780974    -0.5776842573
   14      H      -1.3512523388    -2.7510655005    -0.1687705644
   15      H       2.8147403178    -1.3050084696     0.3483824094
   16      H       0.3524435618     2.8397320626    -0.5430467329
   17      H       4.0347318233     0.8343273679     0.2811243799
   18      H       2.7955073261     2.9245107592    -0.1721099579
   19      H      -3.4722554280    -0.3190713505    -0.9341015473
   20      H      -4.1936082141     0.4226366821     0.5026640059
   21      H      -3.6200024850     1.4198736988    -0.8414679696
 ----------------------------------------------------------------
 Molecular Point Group                 C1    NOp =  1
 Largest Abelian Subgroup              C1    NOp =  1
 Nuclear Repulsion Energy =   786.6233126694 hartrees
 There are       47 alpha and       47 beta electrons
 Applying Cartesian multipole field
    Component          Value
    ---------          -----
     (2,0,0)        1.00000E-11
     (0,2,0)        2.00000E-11
     (0,0,2)       -3.00000E-11
 Nucleus-field energy     =     0.0000000243 hartrees
 Requested basis set is 6-31G
 There are 55 shells and 133 basis functions
 A cutoff of  1.0D-11 yielded   1249 shell pairs
 There are      8218 function pairs
 Smallest overlap matrix eigenvalue = 4.98E-04
 Guess MOs from SCF MO coefficient file
 Reading MOs from coefficient file
 Reading MOs from coefficient file
 A restricted Hartree-Fock SCF calculation will be
 performed using Pulay DIIS extrapolation
 SCF converges when DIIS error is below 1.0E-08
Geometry optimization detected.  Setting ReadMinima to 0
Setting SaveMinima to 0
 ---------------------------------------
  Cycle       Energy         DIIS Error
 ---------------------------------------
    1    -644.6760221930      5.31E-04
    2    -644.6756786261      6.92E-05
    3    -644.6757024327      2.26E-05
    4    -644.6757058814      6.16E-06
    5    -644.6757060699      3.70E-06
    6    -644.6757061523      9.47E-07
    7    -644.6757061598      4.33E-07
    8    -644.6757061609      1.68E-07
    9    -644.6757061611      6.78E-08
   10    -644.6757061615      2.83E-08
   11    -644.6757061614      1.26E-08
   12    -644.6757061614      4.09E-09 Convergence criterion met
 ---------------------------------------
 SCF time:  CPU 13.52 s  wall 13.57 s
 SCF   energy in the final basis set = -644.6757061614
 Total energy in the final basis set = -644.6757061614
 Analysis of SCF Wavefunction
 
 --------------------------------------------------------------
 
                    Orbital Energies (a.u.)
 --------------------------------------------------------------
 
 Alpha MOs
 -- Occupied --
-20.624 -20.620 -20.570 -20.569 -11.424 -11.415 -11.342 -11.278
-11.269 -11.266 -11.257 -11.254 -11.245  -1.498  -1.488  -1.392
 -1.383  -1.192  -1.073  -1.065  -1.022  -0.926  -0.877  -0.837
 -0.804  -0.734  -0.719  -0.700  -0.694  -0.675  -0.668  -0.648
 -0.636  -0.626  -0.591  -0.585  -0.577  -0.562  -0.539  -0.522
 -0.520  -0.487  -0.472  -0.464  -0.454  -0.366  -0.354
 -- Virtual --
  0.074   0.128   0.170   0.212   0.220   0.233   0.257   0.285
  0.295   0.314   0.320   0.331   0.351   0.372   0.406   0.421
  0.429   0.458   0.485   0.499   0.499   0.539   0.576   0.601
  0.705   0.716   0.738   0.746   0.748   0.758   0.787   0.799
  0.813   0.815   0.841   0.847   0.856   0.861   0.868   0.874
  0.893   0.925   0.948   0.953   0.961   0.994   1.027   1.045
  1.094   1.115   1.129   1.138   1.144   1.157   1.178   1.209
  1.213   1.226   1.230   1.240   1.265   1.268   1.279   1.290
  1.313   1.342   1.344   1.361   1.384   1.434   1.439   1.482
  1.492   1.544   1.565   1.592   1.705   1.718   1.761   1.835
  1.893   2.072   2.120   2.225   2.382   2.414
 --------------------------------------------------------------
 
          Ground-State Mulliken Net Atomic Charges

     Atom                 Charge (a.u.)
  ----------------------------------------
      1 C                    -0.160512
      2 C                    -0.210788
      3 C                    -0.209272
      4 C                    -0.165375
      5 C                    -0.518854
      6 C                    -0.131222
      7 C                     0.432765
      8 O                    -0.555592
      9 O                    -0.541489
     10 O                    -0.752810
     11 C                     0.807185
     12 C                     0.781325
     13 O                    -0.787885
     14 H                     0.447830
     15 H                     0.271727
     16 H                     0.231562
     17 H                     0.218588
     18 H                     0.221352
     19 H                     0.215099
     20 H                     0.203139
     21 H                     0.203230
  ----------------------------------------
  Sum of atomic charges =    -0.000000

 -----------------------------------------------------------------
                    Cartesian Multipole Moments
 -----------------------------------------------------------------
    Charge (ESU x 10^10)
                 0.0000
    Dipole Moment (Debye)
         X      -0.5965      Y       2.0070      Z      -2.2758
       Tot       3.0924
    Quadrupole Moments (Debye-Ang)
        XX     -59.6297     XY       9.4976     YY     -72.1095
        XZ       4.5270     YZ      -0.1500     ZZ     -83.9781
    Octopole Moments (Debye-Ang^2)
       XXX     -21.7473    XXY       5.2929    XYY     -27.2691
       YYY      17.1433    XXZ      -7.6902    XYZ       2.3333
       YYZ     -10.6696    XZZ       1.1222    YZZ     -12.4033
       ZZZ     -15.5531
    Hexadecapole Moments (Debye-Ang^3)
      XXXX   -1508.2749   XXXY     -11.8946   XXYY    -414.0098
      XYYY      92.4854   YYYY    -983.3868   XXXZ      51.0511
      XXYZ       1.9845   XYYZ       2.5776   YYYZ      28.6900
      XXZZ    -356.4042   XYZZ      -9.7647   YYZZ    -203.3552
      XZZZ      35.4671   YZZZ      15.8322   ZZZZ    -212.5557
 -----------------------------------------------------------------
 Calculating analytic gradient of the SCF energy
 Gradient of Coulomb and Exchange Energy
            1           2           3           4           5           6
    1  -9.8723511  -0.6993574 -12.0152804  -7.5387007   8.6350869  -0.8164394
    2   4.3596789 -12.5602905  -2.1218504  -9.6647092  -1.4092007   6.1566262
    3  -1.6161481   2.5539223  -1.3524697   0.3819987   0.6654013   0.1545841
            7           8           9          10          11          12
    1   1.4119080 -11.5867329   2.1917520  10.8859252   3.1713850   9.2653370
    2  -2.2068734  24.2044225  -1.6086634   4.4626118  -1.2432032  -1.8064102
    3   1.6182190  -4.1567012 -26.2482184   4.0274501   1.5597066   8.6121264
           13          14          15          16          17          18
    1   6.8620501   2.7252231  -3.6349751   2.7547849  -5.6746149  -2.8864005
    2  -7.2787818   6.2167463   5.0890121  -5.4665074  -0.2419104  -4.9616487
    3  11.6572721  -0.2834162  -1.1370571   1.3191194  -0.8480654   0.1980956
           19          20          21
    1   1.2307580   3.8777569   1.7128852
    2   3.5308953   0.3094309  -3.7593747
    3   3.1618639  -2.8364825   2.5687989
 Gradient of SCF Energy
            1           2           3           4           5           6
    1   0.0000258   0.0000145   0.0000096  -0.0000067   0.0000089  -0.0000171
    2   0.0000198   0.0000121  -0.0000002   0.0000075  -0.0000142   0.0000152
    3   0.0000172  -0.0000070  -0.0000119   0.0000129  -0.0000042   0.0000040
            7           8           9          10          11          12
    1  -0.0000061  -0.0000578  -0.0000071   0.0000275   0.0000271  -0.0000155
    2  -0.0000405  -0.0000216  -0.0000009  -0.0000404   0.0000240   0.0000089
    3  -0.0000144  -0.0000070  -0.0000087   0.0000082  -0.0000066   0.0000470
           13          14          15          16          17          18
    1   0.0000205  -0.0000210  -0.0000053  -0.0000015   0.0000025   0.0000033
    2   0.0000254  -0.0000117   0.0000071   0.0000007   0.0000050   0.0000015
    3  -0.0000238  -0.0000021  -0.0000030  -0.0000013   0.0000019  -0.0000035
           19          20          21
    1  -0.0000003  -0.0000043   0.0000029
    2   0.0000014  -0.0000013   0.0000024
    3  -0.0000026   0.0000012   0.0000036
 Max gradient component =       5.785E-05
 RMS gradient           =       1.678E-05
 Gradient time:  CPU 8.05 s  wall 8.07 s
 Geometry Optimization Parameters
   NAtoms,    NIC,     NZ,  NCons,   NDum,   NFix, NCnnct, MaxDiis
       21     135       0       0       0       0       0       0

 Cartesian Hessian Update
 Hessian Updated using BFGS Update


** GEOMETRY OPTIMIZATION IN DELOCALIZED INTERNAL COORDINATES **
   Searching for a Minimum

   Optimization Cycle:  14

                       Coordinates (Angstroms)
     ATOM                X               Y               Z
      1  C         2.2952525691   -0.3888464359    0.1562282881
      2  C         0.9108716788    1.9484585633   -0.3434404574
      3  C         2.9760296554    0.8124366569    0.1170107034
      4  C         2.2789636472    1.9854178813   -0.1368598179
      5  C        -3.4389202801    0.5258688191   -0.2599525186
      6  C         0.9164780287   -0.4490819485   -0.0545668378
      7  C         0.2362384196    0.7424639098   -0.2988838468
      8  O         0.9420291439   -2.8081855487    0.2297183739
      9  O        -1.8387255679    0.5149172601    1.5456397768
     10  O        -1.0159862128   -1.8595804680   -0.2349180367
     11  C         0.3116270073   -1.7942027564    0.0001004058
     12  C        -2.0931758537    0.5917359212    0.3701963721
     13  O        -1.1241692234    0.7886780974   -0.5776842573
     14  H        -1.3512523388   -2.7510655005   -0.1687705644
     15  H         2.8147403178   -1.3050084696    0.3483824094
     16  H         0.3524435618    2.8397320626   -0.5430467329
     17  H         4.0347318233    0.8343273679    0.2811243799
     18  H         2.7955073261    2.9245107592   -0.1721099579
     19  H        -3.4722554280   -0.3190713505   -0.9341015473
     20  H        -4.1936082141    0.4226366821    0.5026640059
     21  H        -3.6200024850    1.4198736988   -0.8414679696
   Point Group: c1    Number of degrees of freedom:    57


   Energy is   -644.675706161

 Hessian Updated using BFGS Update

 57 Hessian modes will be used to form the next step
  Hessian Eigenvalues:
     0.001362    0.010295    0.015542    0.018319    0.020334    0.021384
     0.022152    0.022478    0.022765    0.022940    0.023002    0.023207
     0.023288    0.050946    0.053224    0.073093    0.076752    0.078093
     0.157962    0.159978    0.159997    0.160028    0.160060    0.163048
     0.168795    0.175243    0.220037    0.225598    0.236796    0.245517
     0.248133    0.250424    0.252445    0.274771    0.284207    0.329386
     0.341430    0.344689    0.345485    0.347515    0.349552    0.351279
     0.351954    0.358289    0.395064    0.416033    0.443134    0.457454
     0.463907    0.465534    0.485473    0.497168    0.552296    0.571159
     0.644426    0.950940    0.964984

 Minimum Search - Taking Simple RFO Step
 Searching for Lamda that Minimizes Along All modes
 Value Taken    Lamda =   0.00000000
 Step Taken.  Stepsize is  0.001251

                             Maximum     Tolerance    Cnvgd?
         Gradient           0.000080      0.000300     YES
         Displacement       0.000542      0.001200     YES
         Energy change     -0.000001      0.000001      NO

 Final energy is   -644.675706161376     


 ******************************
 **  OPTIMIZATION CONVERGED  **
 ******************************

Z-matrix Print:
$molecule
0 1
O 
C  1 1.369758
O  2 1.205120 1 122.327820
C  1 1.389451 2 123.298779 3 -8.696496 0
C  4 1.382584 1 116.248959 2 109.489081 0
H  5 1.070539 4 118.534513 1 -2.637541 0
C  5 1.384094 4 120.052399 1 177.150284 0
H  7 1.072360 5 119.643240 4 179.951675 0
C  7 1.387889 5 120.077791 4 0.079101 0
H  9 1.071570 7 120.462001 5 179.792283 0
C  9 1.381331 7 119.515445 5 -0.256556 0
H  11 1.070581 9 120.675027 7 -179.866892 0
C  4 1.393628 1 122.787101 2 -73.782634 0
C  13 1.475867 4 125.852888 1 2.620297 0
O  14 1.215850 13 123.682774 4 179.254978 0
O  14 1.349839 13 116.153247 4 -1.324567 0
H  16 0.954738 14 112.243306 13 178.866185 0
C  2 1.487432 1 110.685685 3 -178.696726 0
H  18 1.077866 2 109.753380 1 177.050254 0
H  18 1.081440 2 109.061417 1 -62.184828 0
H  18 1.081756 2 110.034967 1 55.847639 0
$end

 Analysis of SCF Wavefunction
 
 --------------------------------------------------------------
 
                    Orbital Energies (a.u.)
 --------------------------------------------------------------
 
 Alpha MOs
 -- Occupied --
-20.624 -20.620 -20.570 -20.569 -11.424 -11.415 -11.342 -11.278
-11.269 -11.266 -11.257 -11.254 -11.245  -1.498  -1.488  -1.392
 -1.383  -1.192  -1.073  -1.065  -1.022  -0.926  -0.877  -0.837
 -0.804  -0.734  -0.719  -0.700  -0.694  -0.675  -0.668  -0.648
 -0.636  -0.626  -0.591  -0.585  -0.577  -0.562  -0.539  -0.522
 -0.520  -0.487  -0.472  -0.464  -0.454  -0.366  -0.354
 -- Virtual --
  0.074   0.128   0.170   0.212   0.220   0.233   0.257   0.285
  0.295   0.314   0.320   0.331   0.351   0.372   0.406   0.421
  0.429   0.458   0.485   0.499   0.499   0.539   0.576   0.601
  0.705   0.716   0.738   0.746   0.748   0.758   0.787   0.799
  0.813   0.815   0.841   0.847   0.856   0.861   0.868   0.874
  0.893   0.925   0.948   0.953   0.961   0.994   1.027   1.045
  1.094   1.115   1.129   1.138   1.144   1.157   1.178   1.209
  1.213   1.226   1.230   1.240   1.265   1.268   1.279   1.290
  1.313   1.342   1.344   1.361   1.384   1.434   1.439   1.482
  1.492   1.544   1.565   1.592   1.705   1.718   1.761   1.835
  1.893   2.072   2.120   2.225   2.382   2.414
 --------------------------------------------------------------
 
          Ground-State Mulliken Net Atomic Charges

     Atom                 Charge (a.u.)
  ----------------------------------------
      1 C                    -0.160512
      2 C                    -0.210788
      3 C                    -0.209272
      4 C                    -0.165375
      5 C                    -0.518854
      6 C                    -0.131222
      7 C                     0.432765
      8 O                    -0.555592
      9 O                    -0.541489
     10 O                    -0.752810
     11 C                     0.807185
     12 C                     0.781325
     13 O                    -0.787885
     14 H                     0.447830
     15 H                     0.271727
     16 H                     0.231562
     17 H                     0.218588
     18 H                     0.221352
     19 H                     0.215099
     20 H                     0.203139
     21 H                     0.203230
  ----------------------------------------
  Sum of atomic charges =    -0.000000

 -----------------------------------------------------------------
                    Cartesian Multipole Moments
 -----------------------------------------------------------------
    Charge (ESU x 10^10)
                 0.0000
    Dipole Moment (Debye)
         X      -0.5965      Y       2.0070      Z      -2.2758
       Tot       3.0924
    Quadrupole Moments (Debye-Ang)
        XX     -59.6297     XY       9.4976     YY     -72.1095
        XZ       4.5270     YZ      -0.1500     ZZ     -83.9781
    Octopole Moments (Debye-Ang^2)
       XXX     -21.7473    XXY       5.2929    XYY     -27.2691
       YYY      17.1433    XXZ      -7.6902    XYZ       2.3333
       YYZ     -10.6696    XZZ       1.1222    YZZ     -12.4033
       ZZZ     -15.5531
    Hexadecapole Moments (Debye-Ang^3)
      XXXX   -1508.2749   XXXY     -11.8946   XXYY    -414.0098
      XYYY      92.4854   YYYY    -983.3868   XXXZ      51.0511
      XXYZ       1.9845   XYYZ       2.5776   YYYZ      28.6900
      XXZZ    -356.4042   XYZZ      -9.7647   YYZZ    -203.3552
      XZZZ      35.4671   YZZZ      15.8322   ZZZZ    -212.5557
 -----------------------------------------------------------------
Archival summary:
1\1\n8\OPT\HF\6-31G\498\erb74\SunSep2018:44:072015SunSep2018:44:072015\0\\#,OPT,HF,6-31G,\\0,1\O\C,1,1.36976\O,2,1.20512,1,122.328\C,1,1.38945,2,123.299,3,-8.6965,0\C,4,1.38258,1,116.249,2,109.489,0\H,5,1.07054,4,118.535,1,-2.63754,0\C,5,1.38409,4,120.052,1,177.15,0\H,7,1.07236,5,119.643,4,179.952,0\C,7,1.38789,5,120.078,4,0.0791015,0\H,9,1.07157,7,120.462,5,179.792,0\C,9,1.38133,7,119.515,5,-0.256556,0\H,11,1.07058,9,120.675,7,-179.867,0\C,4,1.39363,1,122.787,2,-73.7826,0\C,13,1.47587,4,125.853,1,2.6203,0\O,14,1.21585,13,123.683,4,179.255,0\O,14,1.34984,13,116.153,4,-1.32457,0\H,16,0.954738,14,112.243,13,178.866,0\C,2,1.48743,1,110.686,3,-178.697,0\H,18,1.07787,2,109.753,1,177.05,0\H,18,1.08144,2,109.061,1,-62.1848,0\H,18,1.08176,2,110.035,1,55.8476,0\\HF=-644.675706\\@

 Total job time:  333.96s(wall), 329.30s(cpu) 
 Sun Sep 20 18:44:07 2015

        *************************************************************
        *                                                           *
        *  Thank you very much for using Q-Chem.  Have a nice day.  *
        *                                                           *
        *************************************************************


