----- GAMESS execution script 'rungms' -----
This job is running on host n4
under operating system Linux at Thu Mar 20 20:24:38 EDT 2014
PBS has assigned the following compute nodes to this run:
n4
Available scratch disk space at beginning of the job is
Filesystem      Size  Used Avail Use% Mounted on
/dev/sda2       906G   22G  839G   3% /scratch
Copying input file b3lyp.inp.gamin to your run's scratch directory...
Copying input file b3lyp.inp to your run's scratch directory...
          ******************************************************
          *         GAMESS VERSION =  1 MAY 2013 (R1)          *
          *             FROM IOWA STATE UNIVERSITY             *
          * M.W.SCHMIDT, K.K.BALDRIDGE, J.A.BOATZ, S.T.ELBERT, *
          *   M.S.GORDON, J.H.JENSEN, S.KOSEKI, N.MATSUNAGA,   *
          *          K.A.NGUYEN, S.J.SU, T.L.WINDUS,           *
          *       TOGETHER WITH M.DUPUIS, J.A.MONTGOMERY       *
          *         J.COMPUT.CHEM.  14, 1347-1363(1993)        *
          **************** 64 BIT INTEL VERSION ****************

  SINCE 1993, STUDENTS AND POSTDOCS WORKING AT IOWA STATE UNIVERSITY
  AND ALSO IN THEIR VARIOUS JOBS AFTER LEAVING ISU HAVE MADE IMPORTANT
  CONTRIBUTIONS TO THE CODE:
     IVANA ADAMOVIC, CHRISTINE AIKENS, YURI ALEXEEV, POOJA ARORA,
     ANDREY ASADCHEV, ROB BELL, PRADIPTA BANDYOPADHYAY, JONATHAN BENTZ,
     BRETT BODE, GALINA CHABAN, WEI CHEN, CHEOL HO CHOI, PAUL DAY,
     ALBERT DEFUSCO, TIM DUDLEY, DMITRI FEDOROV, GRAHAM FLETCHER,
     MARK FREITAG, KURT GLAESEMANN, DAN KEMP, GRANT MERRILL,
     NORIYUKI MINEZAWA, JONATHAN MULLIN, TAKESHI NAGATA,
     SEAN NEDD, HEATHER NETZLOFF, BOSILJKA NJEGIC, RYAN OLSON, MIKE PAK,
     JIM SHOEMAKER, LYUDMILA SLIPCHENKO, SAROM SOK, JIE SONG,
     TETSUYA TAKETSUGU, SIMON WEBB, SOOHAENG YOO, FEDERICO ZAHARIEV

  ADDITIONAL CODE HAS BEEN PROVIDED BY COLLABORATORS IN OTHER GROUPS:
     IOWA STATE UNIVERSITY:
          JOE IVANIC, LAIMUTIS BYTAUTAS, KLAUS RUEDENBERG
     UNIVERSITY OF TOKYO: KIMIHIKO HIRAO, TAKAHITO NAKAJIMA,
          TAKAO TSUNEDA, MUNEAKI KAMIYA, SUSUMU YANAGISAWA,
          KIYOSHI YAGI, MAHITO CHIBA, SEIKEN TOKURA, NAOAKI KAWAKAMI
     UNIVERSITY OF AARHUS: FRANK JENSEN
     UNIVERSITY OF IOWA: VISVALDAS KAIRYS, HUI LI
     NATIONAL INST. OF STANDARDS AND TECHNOLOGY: WALT STEVENS, DAVID GARMER
     UNIVERSITY OF PISA: BENEDETTA MENNUCCI, JACOPO TOMASI
     UNIVERSITY OF MEMPHIS: HENRY KURTZ, PRAKASHAN KORAMBATH
     UNIVERSITY OF ALBERTA: TOBY ZENG, MARIUSZ KLOBUKOWSKI
     UNIVERSITY OF NEW ENGLAND: MARK SPACKMAN
     MIE UNIVERSITY: HIROAKI UMEDA
     MICHIGAN STATE UNIVERSITY:
          KAROL KOWALSKI, MARTA WLOCH, JEFFREY GOUR, JESSE LUTZ,
          WEI LI, PIOTR PIECUCH
     UNIVERSITY OF SILESIA: MONIKA MUSIAL, STANISLAW KUCHARSKI
     FACULTES UNIVERSITAIRES NOTRE-DAME DE LA PAIX:
          OLIVIER QUINET, BENOIT CHAMPAGNE
     UNIVERSITY OF CALIFORNIA - SANTA BARBARA: BERNARD KIRTMAN
     INSTITUTE FOR MOLECULAR SCIENCE:
          KAZUYA ISHIMURA, MICHIO KATOUDA, AND SHIGERU NAGASE
     UNIVERSITY OF NOTRE DAME: DAN CHIPMAN
     KYUSHU UNIVERSITY:
          HARUYUKI NAKANO,
          FENG LONG GU, JACEK KORCHOWIEC, MARCIN MAKOWSKI, AND YURIKO AOKI,
          HIROTOSHI MORI AND EISAKU MIYOSHI
     PENNSYLVANIA STATE UNIVERSITY:
          TZVETELIN IORDANOV, CHET SWALINA, JONATHAN SKONE,
          SHARON HAMMES-SCHIFFER
     WASEDA UNIVERSITY:
          MASATO KOBAYASHI, TOMOKO AKAMA, TSUGUKI TOUMA,
          TAKESHI YOSHIKAWA, YASUHIRO IKABATA, HIROMI NAKAI
     NANJING UNIVERSITY: SHUHUA LI
     UNIVERSITY OF NEBRASKA:
          PEIFENG SU, DEJUN SI, NANDUN THELLAMUREGE, YALI WANG, HUI LI
     UNIVERSITY OF ZURICH:
          ROBERTO PEVERATI, KIM BALDRIDGE
     N. COPERNICUS UNIVERSITY AND JACKSON STATE UNIVERSITY:
          MARIA BARYSZ

 EXECUTION OF GAMESS BEGUN Thu Mar 20 20:24:40 2014

            ECHO OF THE FIRST FEW INPUT CARDS -
 INPUT CARD> $SYSTEM MWORDS=250 $END                                                        
 INPUT CARD> $basis gbasis=n31 ngauss=6 $end                                                
 INPUT CARD> $SCF DIRSCF=.T. DAMP=.T. SHIFT=.T. ETHRSH=5 $END                               
 INPUT CARD> $contrl dfttyp=b3lypv1r $end                                                   
 INPUT CARD> $contrl SCFTYP=RHF MAXIT=200 ICHARG=0 MULT=1 RUNTYP=optimize nzvar=240 $END    
 INPUT CARD> $statpt nstep=500 $end                                                         
 INPUT CARD> $GUESS GUESS=HUCKEL $END                                                       
 INPUT CARD> $zmat auto=.t. dlc=.t. $end                                                    
 INPUT CARD>                                                                                
 INPUT CARD> $DATA                                                                          
 INPUT CARD>  C9H8O4                                                                        
 INPUT CARD>  C1                                                                            
 INPUT CARD>  CARBON      6.0      2.056390000        -0.165430000         0.397270000      
 INPUT CARD>  CARBON      6.0      0.688900000         2.028540000        -0.648160000      
 INPUT CARD>  CARBON      6.0      2.740710000         1.023270000         0.125330000      
 INPUT CARD>  CARBON      6.0      2.057340000         2.117820000        -0.400160000      
 INPUT CARD>  CARBON      6.0     -3.593960000         1.032090000         0.045890000      
 INPUT CARD>  CARBON      6.0      0.677380000        -0.275070000         0.150970000      
 INPUT CARD>  CARBON      6.0      0.002740000         0.842340000        -0.358870000      
 INPUT CARD>  OXYGEN      8.0      0.632930000        -2.545260000         0.933600000      
 INPUT CARD>  OXYGEN      8.0     -1.764520000         1.432520000         1.565710000      
 INPUT CARD>  OXYGEN      8.0     -1.248940000        -1.684110000         0.129750000      
 INPUT CARD>  CARBON      6.0      0.052780000        -1.588810000         0.449580000      
 INPUT CARD>  CARBON      6.0     -2.151990000         1.128410000         0.445130000      
 INPUT CARD>  OXYGEN      8.0     -1.361670000         0.828320000        -0.658250000      
 INPUT CARD>  HYDROGEN    1.0     -1.476520000        -2.601110000         0.392320000      
 INPUT CARD>  HYDROGEN    1.0      2.609480000        -1.011730000         0.802840000      
 INPUT CARD>  HYDROGEN    1.0      0.157080000         2.882660000        -1.058230000      
 INPUT CARD>  HYDROGEN    1.0      3.807770000         1.091260000         0.323640000      
 INPUT CARD>  HYDROGEN    1.0      2.590440000         3.040810000        -0.614050000      
 INPUT CARD>  HYDROGEN    1.0     -3.816400000         0.020490000        -0.302870000      
 INPUT CARD>  HYDROGEN    1.0     -4.224800000         1.245910000         0.914400000      
 INPUT CARD>  HYDROGEN    1.0     -3.812960000         1.765760000        -0.733320000      
 INPUT CARD> $END                                                                           
 INPUT CARD>                                                                                
 INPUT CARD>                                                                                
 INPUT CARD>                                                                                
  250000000 WORDS OF MEMORY AVAILABLE

     BASIS OPTIONS
     -------------
     GBASIS=N31          IGAUSS=       6      POLAR=NONE    
     NDFUNC=       0     NFFUNC=       0     DIFFSP=       F
     NPFUNC=       0      DIFFS=       F     BASNAM=        


     RUN TITLE
     ---------
   C9H8O4                                                                        

 THE POINT GROUP OF THE MOLECULE IS C1      
 THE ORDER OF THE PRINCIPAL AXIS IS     0

 ATOM      ATOMIC                      COORDINATES (BOHR)
           CHARGE         X                   Y                   Z
 CARBON      6.0     3.8860136239       -0.3126173701        0.7507314431
 CARBON      6.0     1.3018322329        3.8333847551       -1.2248447962
 CARBON      6.0     5.1791909118        1.9336999115        0.2368393580
 CARBON      6.0     3.8878088636        4.0020994913       -0.7561927512
 CARBON      6.0    -6.7915996108        1.9503672947        0.0867195256
 CARBON      6.0     1.2800625896       -0.5198069274        0.2852919324
 CARBON      6.0     0.0051778492        1.5917917885       -0.6781659652
 OXYGEN      8.0     1.1960642694       -4.8098439675        1.7642481821
 OXYGEN      8.0    -3.3344592999        2.7070702719        2.9587628762
 OXYGEN      8.0    -2.3601543751       -3.1825064332        0.2451919469
 CARBON      6.0     0.0997397376       -3.0024155466        0.8495830096
 CARBON      6.0    -4.0666714283        2.1323857018        0.8411737289
 OXYGEN      8.0    -2.5731831857        1.5652978301       -1.2439121314
 HYDROGEN    1.0    -2.7902182154       -4.9153851639        0.7413772995
 HYDROGEN    1.0     4.9312021704       -1.9118924736        1.5171476120
 HYDROGEN    1.0     0.2968381582        5.4474375158       -1.9997647320
 HYDROGEN    1.0     7.1956419243        2.0621823814        0.6115909187
 HYDROGEN    1.0     4.8952217876        5.7462976807       -1.1603862428
 HYDROGEN    1.0    -7.2119502595        0.0387204855       -0.5723413099
 HYDROGEN    1.0    -7.9837143529        2.3544285054        1.7279654432
 HYDROGEN    1.0    -7.2054496021        3.3368025601       -1.3857738613

          INTERNUCLEAR DISTANCES (ANGS.)
          ------------------------------

                1 CARB       2 CARB       3 CARB       4 CARB       5 CARB  

   1 CARB    0.0000000    2.7886300 *  1.3983036 *  2.4184967 *  5.7865341  
   2 CARB    2.7886300 *  0.0000000    2.4122145 *  1.3935935 *  4.4516859  
   3 CARB    1.3983036 *  2.4122145 *  0.0000000    1.3932602 *  6.3351742  
   4 CARB    2.4184967 *  1.3935935 *  1.3932602 *  0.0000000    5.7719115  
   5 CARB    5.7865341    4.4516859    6.3351742    5.7719115    0.0000000  
   6 CARB    1.4051168 *  2.4383110 *  2.4379653 *  2.8167280 *  4.4681153  
   7 CARB    2.4093207 *  1.4005623 *  2.7863354 *  2.4186639 *  3.6243740  
   8 OXYG    2.8244431 *  4.8399115    4.2226110    5.0549159    5.6082137  
   9 OXYG    4.3032603    3.3579354    4.7475549    4.3521138    2.4118557 *
  10 OXYG    3.6473500    4.2595936    4.8215385    5.0662574    3.5894141  
  11 CARB    2.4582921 *  3.8333931    3.7620563    4.2987702    4.5089683  
  12 CARB    4.4030415    3.1742988    4.9042675    4.4058945    1.4993157 *
  13 OXYG    3.7127881    2.3760192 *  4.1810913    3.6632022    2.3495646 *
  14 HYDR    4.2911554    5.2158702    5.5670857    5.9484865    4.2194441  
  15 HYDR    1.0893206 *  3.8777919    2.1488290 *  3.3979627    6.5751685  
  16 HYDR    3.8751402    1.0865132 *  3.3960697    2.1515168 *  4.3259671  
  17 HYDR    2.1568549 *  3.3985643    1.0874588 *  2.1544644 *  7.4071758  
  18 HYDR    3.4041082    2.1544624 *  2.1540036 *  1.0871316 *  6.5358458  
  19 HYDR    5.9172988    4.9446151    6.6471509    6.2377143    1.0929079 *
  20 HYDR    6.4585333    5.2152230    7.0135961    6.4771582    1.0945263 *
  21 HYDR    6.2814806    4.5103269    6.6512526    5.8902771    1.0924289 *

                6 CARB       7 CARB       8 OXYG       9 OXYG      10 OXYG  

   1 CARB    1.4051168 *  2.4093207 *  2.8244431 *  4.3032603    3.6473500  
   2 CARB    2.4383110 *  1.4005623 *  4.8399115    3.3579354    4.2595936  
   3 CARB    2.4379653 *  2.7863354 *  4.2226110    4.7475549    4.8215385  
   4 CARB    2.8167280 *  2.4186639 *  5.0549159    4.3521138    5.0662574  
   5 CARB    4.4681153    3.6243740    5.6082137    2.4118557 *  3.5894141  
   6 CARB    0.0000000    1.4013140 *  2.4017178 *  3.2985191    2.3867452 *
   7 CARB    1.4013140 *  0.0000000    3.6801429    2.6787177 *  2.8615384 *
   8 OXYG    2.4017178 *  3.6801429    0.0000000    4.6872234    2.2201777 *
   9 OXYG    3.2985191    2.6787177 *  4.6872234    0.0000000    3.4700413  
  10 OXYG    2.3867452 *  2.8615384 *  2.2201777 *  3.4700413    0.0000000  
  11 CARB    1.4849936 *  2.5625350 *  1.2188708 *  3.6982104    1.3438185 *
  12 CARB    3.1720058    2.3175663 *  4.6357560    1.2240570 *  2.9707293 *
  13 OXYG    2.4556122 *  1.3969394 *  4.2300659    2.3395179 *  2.6355183 *
  14 HYDR    3.1793076    3.8222826    2.1785047 *  4.2106958    0.9806246 *
  15 HYDR    2.1680897 *  3.4032689    2.5051073 *  5.0683533    3.9739841  
  16 HYDR    3.4211307    2.1623670 *  5.8013908    3.5609709    4.9237767  
  17 HYDR    3.4199436    3.8737623    4.8657926    5.7192318    5.7715326  
  18 HYDR    3.9038589    3.4050813    6.1181079    5.1287062    6.1334286  
  19 HYDR    4.5262993    3.9069686    5.2828466    3.1137809    3.1120206  
  20 HYDR    5.1891786    4.4335290    6.1620516    2.5518632 *  4.2492865  
  21 HYDR    5.0109988    3.9436638    6.4132249    3.0972075    4.3841409  

               11 CARB      12 CARB      13 OXYG      14 HYDR      15 HYDR  

   1 CARB    2.4582921 *  4.4030415    3.7127881    4.2911554    1.0893206 *
   2 CARB    3.8333931    3.1742988    2.3760192 *  5.2158702    3.8777919  
   3 CARB    3.7620563    4.9042675    4.1810913    5.5670857    2.1488290 *
   4 CARB    4.2987702    4.4058945    3.6632022    5.9484865    3.3979627  
   5 CARB    4.5089683    1.4993157 *  2.3495646 *  4.2194441    6.5751685  
   6 CARB    1.4849936 *  3.1720058    2.4556122 *  3.1793076    2.1680897 *
   7 CARB    2.5625350 *  2.3175663 *  1.3969394 *  3.8222826    3.4032689  
   8 OXYG    1.2188708 *  4.6357560    4.2300659    2.1785047 *  2.5051073 *
   9 OXYG    3.6982104    1.2240570 *  2.3395179 *  4.2106958    5.0683533  
  10 OXYG    1.3438185 *  2.9707293 *  2.6355183 *  0.9806246 *  3.9739841  
  11 CARB    0.0000000    3.4991878    3.0117227    1.8348811 *  2.6447172 *
  12 CARB    3.4991878    0.0000000    1.3900026 *  3.7905630    5.2325665  
  13 OXYG    3.0117227    1.3900026 *  0.0000000    3.5885760    4.6141738  
  14 HYDR    1.8348811 *  3.7905630    3.5885760    0.0000000    4.4034136  
  15 HYDR    2.6447172 *  5.2325665    4.6141738    4.4034136    0.0000000  
  16 HYDR    4.7200014    3.2663877    2.5859038 *  5.9029211    4.9642845  
  17 HYDR    4.6150391    5.9611139    5.2684301    6.4468623    2.4674072 *
  18 HYDR    5.3855741    5.2220473    4.5294855    7.0273897    4.2931364  
  19 HYDR    4.2575323    2.1347720 *  2.6085597 *  3.5820545    6.6015155  
  20 HYDR    5.1526096    2.1285117 *  3.2931934    4.7565926    7.1983864  
  21 HYDR    5.2532217    2.1339589 *  2.6255003 *  5.0789340    7.1639356  

               16 HYDR      17 HYDR      18 HYDR      19 HYDR      20 HYDR  

   1 CARB    3.8751402    2.1568549 *  3.4041082    5.9172988    6.4585333  
   2 CARB    1.0865132 *  3.3985643    2.1544624 *  4.9446151    5.2152230  
   3 CARB    3.3960697    1.0874588 *  2.1540036 *  6.6471509    7.0135961  
   4 CARB    2.1515168 *  2.1544644 *  1.0871316 *  6.2377143    6.4771582  
   5 CARB    4.3259671    7.4071758    6.5358458    1.0929079 *  1.0945263 *
   6 CARB    3.4211307    3.4199436    3.9038589    4.5262993    5.1891786  
   7 CARB    2.1623670 *  3.8737623    3.4050813    3.9069686    4.4335290  
   8 OXYG    5.8013908    4.8657926    6.1181079    5.2828466    6.1620516  
   9 OXYG    3.5609709    5.7192318    5.1287062    3.1137809    2.5518632 *
  10 OXYG    4.9237767    5.7715326    6.1334286    3.1120206    4.2492865  
  11 CARB    4.7200014    4.6150391    5.3855741    4.2575323    5.1526096  
  12 CARB    3.2663877    5.9611139    5.2220473    2.1347720 *  2.1285117 *
  13 OXYG    2.5859038 *  5.2684301    4.5294855    2.6085597 *  3.2931934  
  14 HYDR    5.9029211    6.4468623    7.0273897    3.5820545    4.7565926  
  15 HYDR    4.9642845    2.4674072 *  4.2931364    6.6015155    7.1983864  
  16 HYDR    0.0000000    4.2949058    2.4786182 *  4.9549096    5.0765236  
  17 HYDR    4.2949058    0.0000000    2.4823175 *  7.7244438    8.0557492  
  18 HYDR    2.4786182 *  2.4823175 *  0.0000000    7.0899058    7.2114715  
  19 HYDR    4.9549096    7.7244438    7.0899058    0.0000000    1.7748777 *
  20 HYDR    5.0765236    8.0557492    7.2114715    1.7748777 *  0.0000000  
  21 HYDR    4.1369372    7.7231885    6.5301998    1.7975724 *  1.7761862 *

               21 HYDR  

   1 CARB    6.2814806  
   2 CARB    4.5103269  
   3 CARB    6.6512526  
   4 CARB    5.8902771  
   5 CARB    1.0924289 *
   6 CARB    5.0109988  
   7 CARB    3.9436638  
   8 OXYG    6.4132249  
   9 OXYG    3.0972075  
  10 OXYG    4.3841409  
  11 CARB    5.2532217  
  12 CARB    2.1339589 *
  13 OXYG    2.6255003 *
  14 HYDR    5.0789340  
  15 HYDR    7.1639356  
  16 HYDR    4.1369372  
  17 HYDR    7.7231885  
  18 HYDR    6.5301998  
  19 HYDR    1.7975724 *
  20 HYDR    1.7761862 *
  21 HYDR    0.0000000  

  * ... LESS THAN  3.000


     ATOMIC BASIS SET
     ----------------
 THE CONTRACTED PRIMITIVE FUNCTIONS HAVE BEEN UNNORMALIZED
 THE CONTRACTED BASIS FUNCTIONS ARE NOW NORMALIZED TO UNITY

  SHELL TYPE  PRIMITIVE        EXPONENT          CONTRACTION COEFFICIENT(S)

 CARBON    

      1   S       1          3047.5248800    0.001834737132
      1   S       2           457.3695180    0.014037322813
      1   S       3           103.9486850    0.068842622264
      1   S       4            29.2101553    0.232184443216
      1   S       5             9.2866630    0.467941348435
      1   S       6             3.1639270    0.362311985337

      2   L       7             7.8682723   -0.119332419775    0.068999066591
      2   L       8             1.8812885   -0.160854151696    0.316423960957
      2   L       9             0.5442493    1.143456437840    0.744308290898

      3   L      10             0.1687145    1.000000000000    1.000000000000

 CARBON    

      4   S      11          3047.5248800    0.001834737132
      4   S      12           457.3695180    0.014037322813
      4   S      13           103.9486850    0.068842622264
      4   S      14            29.2101553    0.232184443216
      4   S      15             9.2866630    0.467941348435
      4   S      16             3.1639270    0.362311985337

      5   L      17             7.8682723   -0.119332419775    0.068999066591
      5   L      18             1.8812885   -0.160854151696    0.316423960957
      5   L      19             0.5442493    1.143456437840    0.744308290898

      6   L      20             0.1687145    1.000000000000    1.000000000000

 CARBON    

      7   S      21          3047.5248800    0.001834737132
      7   S      22           457.3695180    0.014037322813
      7   S      23           103.9486850    0.068842622264
      7   S      24            29.2101553    0.232184443216
      7   S      25             9.2866630    0.467941348435
      7   S      26             3.1639270    0.362311985337

      8   L      27             7.8682723   -0.119332419775    0.068999066591
      8   L      28             1.8812885   -0.160854151696    0.316423960957
      8   L      29             0.5442493    1.143456437840    0.744308290898

      9   L      30             0.1687145    1.000000000000    1.000000000000

 CARBON    

     10   S      31          3047.5248800    0.001834737132
     10   S      32           457.3695180    0.014037322813
     10   S      33           103.9486850    0.068842622264
     10   S      34            29.2101553    0.232184443216
     10   S      35             9.2866630    0.467941348435
     10   S      36             3.1639270    0.362311985337

     11   L      37             7.8682723   -0.119332419775    0.068999066591
     11   L      38             1.8812885   -0.160854151696    0.316423960957
     11   L      39             0.5442493    1.143456437840    0.744308290898

     12   L      40             0.1687145    1.000000000000    1.000000000000

 CARBON    

     13   S      41          3047.5248800    0.001834737132
     13   S      42           457.3695180    0.014037322813
     13   S      43           103.9486850    0.068842622264
     13   S      44            29.2101553    0.232184443216
     13   S      45             9.2866630    0.467941348435
     13   S      46             3.1639270    0.362311985337

     14   L      47             7.8682723   -0.119332419775    0.068999066591
     14   L      48             1.8812885   -0.160854151696    0.316423960957
     14   L      49             0.5442493    1.143456437840    0.744308290898

     15   L      50             0.1687145    1.000000000000    1.000000000000

 CARBON    

     16   S      51          3047.5248800    0.001834737132
     16   S      52           457.3695180    0.014037322813
     16   S      53           103.9486850    0.068842622264
     16   S      54            29.2101553    0.232184443216
     16   S      55             9.2866630    0.467941348435
     16   S      56             3.1639270    0.362311985337

     17   L      57             7.8682723   -0.119332419775    0.068999066591
     17   L      58             1.8812885   -0.160854151696    0.316423960957
     17   L      59             0.5442493    1.143456437840    0.744308290898

     18   L      60             0.1687145    1.000000000000    1.000000000000

 CARBON    

     19   S      61          3047.5248800    0.001834737132
     19   S      62           457.3695180    0.014037322813
     19   S      63           103.9486850    0.068842622264
     19   S      64            29.2101553    0.232184443216
     19   S      65             9.2866630    0.467941348435
     19   S      66             3.1639270    0.362311985337

     20   L      67             7.8682723   -0.119332419775    0.068999066591
     20   L      68             1.8812885   -0.160854151696    0.316423960957
     20   L      69             0.5442493    1.143456437840    0.744308290898

     21   L      70             0.1687145    1.000000000000    1.000000000000

 OXYGEN    

     22   S      71          5484.6716600    0.001831074430
     22   S      72           825.2349460    0.013950172200
     22   S      73           188.0469580    0.068445078098
     22   S      74            52.9645000    0.232714335992
     22   S      75            16.8975704    0.470192897984
     22   S      76             5.7996353    0.358520852987

     23   L      77            15.5396162   -0.110777549525    0.070874268231
     23   L      78             3.5999336   -0.148026262701    0.339752839147
     23   L      79             1.0137618    1.130767015354    0.727158577316

     24   L      80             0.2700058    1.000000000000    1.000000000000

 OXYGEN    

     25   S      81          5484.6716600    0.001831074430
     25   S      82           825.2349460    0.013950172200
     25   S      83           188.0469580    0.068445078098
     25   S      84            52.9645000    0.232714335992
     25   S      85            16.8975704    0.470192897984
     25   S      86             5.7996353    0.358520852987

     26   L      87            15.5396162   -0.110777549525    0.070874268231
     26   L      88             3.5999336   -0.148026262701    0.339752839147
     26   L      89             1.0137618    1.130767015354    0.727158577316

     27   L      90             0.2700058    1.000000000000    1.000000000000

 OXYGEN    

     28   S      91          5484.6716600    0.001831074430
     28   S      92           825.2349460    0.013950172200
     28   S      93           188.0469580    0.068445078098
     28   S      94            52.9645000    0.232714335992
     28   S      95            16.8975704    0.470192897984
     28   S      96             5.7996353    0.358520852987

     29   L      97            15.5396162   -0.110777549525    0.070874268231
     29   L      98             3.5999336   -0.148026262701    0.339752839147
     29   L      99             1.0137618    1.130767015354    0.727158577316

     30   L     100             0.2700058    1.000000000000    1.000000000000

 CARBON    

     31   S     101          3047.5248800    0.001834737132
     31   S     102           457.3695180    0.014037322813
     31   S     103           103.9486850    0.068842622264
     31   S     104            29.2101553    0.232184443216
     31   S     105             9.2866630    0.467941348435
     31   S     106             3.1639270    0.362311985337

     32   L     107             7.8682723   -0.119332419775    0.068999066591
     32   L     108             1.8812885   -0.160854151696    0.316423960957
     32   L     109             0.5442493    1.143456437840    0.744308290898

     33   L     110             0.1687145    1.000000000000    1.000000000000

 CARBON    

     34   S     111          3047.5248800    0.001834737132
     34   S     112           457.3695180    0.014037322813
     34   S     113           103.9486850    0.068842622264
     34   S     114            29.2101553    0.232184443216
     34   S     115             9.2866630    0.467941348435
     34   S     116             3.1639270    0.362311985337

     35   L     117             7.8682723   -0.119332419775    0.068999066591
     35   L     118             1.8812885   -0.160854151696    0.316423960957
     35   L     119             0.5442493    1.143456437840    0.744308290898

     36   L     120             0.1687145    1.000000000000    1.000000000000

 OXYGEN    

     37   S     121          5484.6716600    0.001831074430
     37   S     122           825.2349460    0.013950172200
     37   S     123           188.0469580    0.068445078098
     37   S     124            52.9645000    0.232714335992
     37   S     125            16.8975704    0.470192897984
     37   S     126             5.7996353    0.358520852987

     38   L     127            15.5396162   -0.110777549525    0.070874268231
     38   L     128             3.5999336   -0.148026262701    0.339752839147
     38   L     129             1.0137618    1.130767015354    0.727158577316

     39   L     130             0.2700058    1.000000000000    1.000000000000

 HYDROGEN  

     40   S     131            18.7311370    0.033494604338
     40   S     132             2.8253944    0.234726953484
     40   S     133             0.6401217    0.813757326146

     41   S     134             0.1612778    1.000000000000

 HYDROGEN  

     42   S     135            18.7311370    0.033494604338
     42   S     136             2.8253944    0.234726953484
     42   S     137             0.6401217    0.813757326146

     43   S     138             0.1612778    1.000000000000

 HYDROGEN  

     44   S     139            18.7311370    0.033494604338
     44   S     140             2.8253944    0.234726953484
     44   S     141             0.6401217    0.813757326146

     45   S     142             0.1612778    1.000000000000

 HYDROGEN  

     46   S     143            18.7311370    0.033494604338
     46   S     144             2.8253944    0.234726953484
     46   S     145             0.6401217    0.813757326146

     47   S     146             0.1612778    1.000000000000

 HYDROGEN  

     48   S     147            18.7311370    0.033494604338
     48   S     148             2.8253944    0.234726953484
     48   S     149             0.6401217    0.813757326146

     49   S     150             0.1612778    1.000000000000

 HYDROGEN  

     50   S     151            18.7311370    0.033494604338
     50   S     152             2.8253944    0.234726953484
     50   S     153             0.6401217    0.813757326146

     51   S     154             0.1612778    1.000000000000

 HYDROGEN  

     52   S     155            18.7311370    0.033494604338
     52   S     156             2.8253944    0.234726953484
     52   S     157             0.6401217    0.813757326146

     53   S     158             0.1612778    1.000000000000

 HYDROGEN  

     54   S     159            18.7311370    0.033494604338
     54   S     160             2.8253944    0.234726953484
     54   S     161             0.6401217    0.813757326146

     55   S     162             0.1612778    1.000000000000

 TOTAL NUMBER OF BASIS SET SHELLS             =   55
 NUMBER OF CARTESIAN GAUSSIAN BASIS FUNCTIONS =  133
 NUMBER OF ELECTRONS                          =   94
 CHARGE OF MOLECULE                           =    0
 SPIN MULTIPLICITY                            =    1
 NUMBER OF OCCUPIED ORBITALS (ALPHA)          =   47
 NUMBER OF OCCUPIED ORBITALS (BETA )          =   47
 TOTAL NUMBER OF ATOMS                        =   21
 THE NUCLEAR REPULSION ENERGY IS      782.6612221314

     $NEO OPTIONS
     ------------
     NUNIQN=       0     BASNUC=DZSNB        NEOSCF=NONE    
     NEOCI =NONE         NUMULT=       2     NUCST =       1
     NAUXNB=       0     VNUCEX=       F     NUCOPT=       F
     NTAUXB=       0     NEOHSS=       F     HSSINI=READH   
     HSSUPD=POWELLUP     DIRNUC=       F     SYMNUC=       F
     QMTOLN= 0.0E+00     USRDEX=       F
     POSNEO=       F     POSPRP=       F
     NEONCI=       F     LOCORB=       0

     LEBEDEV GRID-BASED DFT OPTIONS
     ------------------------------
     DFTTYP=B3LYPV1R
     NRAD  =      96     NLEB  =     302
     NRAD0 =      24     NLEB0 =     110
     SWOFF =    5.00E-03 (PURE SCF -> DFT)
     SWITCH=    3.00E-04 (COARSE -> TIGHT GRID)
     THRESH=    0.00E+00 GTHRE=    1.00E+00

 GRIMME'S EMPIRICAL DISPERSION CORRECTION= F

     $CONTRL OPTIONS
     ---------------
 SCFTYP=RHF          RUNTYP=OPTIMIZE     EXETYP=RUN     
 MPLEVL=       0     CITYP =NONE         CCTYP =NONE         VBTYP =NONE    
 DFTTYP=B3LYPV1R     TDDFT =NONE    
 MULT  =       1     ICHARG=       0     NZVAR =     240     COORD =UNIQUE  
 PP    =NONE         RELWFN=NONE         LOCAL =NONE         NUMGRD=       F
 ISPHER=      -1     NOSYM =       0     MAXIT =     200     UNITS =ANGS    
 PLTORB=       F     MOLPLT=       F     AIMPAC=       F     FRIEND=        
 NPRINT=       7     IREST =       0     GEOM  =INPUT   
 NORMF =       0     NORMP =       0     ITOL  =      20     ICUT  =       9
 INTTYP=BEST         GRDTYP=BEST         QMTTOL= 1.0E-06

     $SYSTEM OPTIONS
     ---------------
  REPLICATED MEMORY=   250000000 WORDS (ON EVERY NODE).
 DISTRIBUTED MEMDDI=           0 MILLION WORDS IN AGGREGATE,
 MEMDDI DISTRIBUTED OVER   1 PROCESSORS IS           0 WORDS/PROCESSOR.
 TOTAL MEMORY REQUESTED ON EACH PROCESSOR=   250000000 WORDS.
 TIMLIM=      525600.00 MINUTES, OR     365.0 DAYS.
 PARALL= F  BALTYP=  DLB     KDIAG=    0  COREFL= F
 MXSEQ2=     300 MXSEQ3=     150

          ----------------
          PROPERTIES INPUT
          ----------------

     MOMENTS            FIELD           POTENTIAL          DENSITY
 IEMOM =       1   IEFLD =       0   IEPOT =       0   IEDEN =       0
 WHERE =COMASS     WHERE =NUCLEI     WHERE =NUCLEI     WHERE =NUCLEI  
 OUTPUT=BOTH       OUTPUT=BOTH       OUTPUT=BOTH       OUTPUT=BOTH    
 IEMINT=       0   IEFINT=       0                     IEDINT=       0
                                                       MORB  =       0
          EXTRAPOLATION IN EFFECT
          DAMPING IN EFFECT
          LEVEL SHIFTING IN EFFECT
          DIIS IN EFFECT
 ORBITAL PRINTING OPTION: NPREO=     1   133     2     1

     -------------------------------
     INTEGRAL TRANSFORMATION OPTIONS
     -------------------------------
     NWORD  =            0
     CUTOFF = 1.0E-09     MPTRAN =       0
     DIRTRF =       T     AOINTS =DUP     

          ----------------------
          INTEGRAL INPUT OPTIONS
          ----------------------
 NOPK  =       1 NORDER=       0 SCHWRZ=       T
 
 
 -----------------------------------------------
  STATISTICS ON AUTOMATIC COORDINATE GENERATION 
 -----------------------------------------------
  NUMBER OF USER SPECIFIED BONDS                              0
  NUMBER OF BONDS                                            21
  NUMBER OF ANGLES                                           32
  NUMBER OF TORSIONS                                         40
  NUMBER OF EXTRA COORD.                                      0
  NUMBER OF EXTRA COORD. FOR CONSTRAINTS                      0
  NUMBER OF CONSTRAINED COORD.                                0
 
  TOTAL NUMBER OF PRIMITIVES                                 93
 -----------------------------------------------

   --- ENCODED Z MATRIX ---
 COORD  TYPE   I   J   K   L   M   N
    1      1    1  15
    2      1    1   6
    3      1    1   3
    4      1    2   7
    5      1    2   4
    6      1    2  16
    7      1    3   4
    8      1    3  17
    9      1    4  18
   10      1    5  20
   11      1    5  12
   12      1    5  21
   13      1    5  19
   14      1    6  11
   15      1    6   7
   16      1    7  13
   17      1    8  11
   18      1    9  12
   19      1   10  14
   20      1   10  11
   21      1   12  13
   22      2    1   3  17
   23      2    1   3   4
   24      2    1   6  11
   25      2    1   6   7
   26      2    2   7  13
   27      2    2   4   3
   28      2    2   7   6
   29      2    2   4  18
   30      2    3   1   6
   31      2    3   1  15
   32      2    3   4  18
   33      2    4   3  17
   34      2    4   2  16
   35      2    4   2   7
   36      2    5  12  13
   37      2    5  12   9
   38      2    6  11   8
   39      2    6   7  13
   40      2    6   1  15
   41      2    6  11  10
   42      2    7  13  12
   43      2    7   6  11
   44      2    7   2  16
   45      2    8  11  10
   46      2    9  12  13
   47      2   11  10  14
   48      2   12   5  19
   49      2   12   5  21
   50      2   12   5  20
   51      2   19   5  21
   52      2   19   5  20
   53      2   20   5  21
   54      3    1   6   7  13
   55      3    1   3   4  18
   56      3    1   6   7   2
   57      3    1   3   4   2
   58      3    1   6  11  10
   59      3    1   6  11   8
   60      3    2   7   6  11
   61      3    2   4   3  17
   62      3    2   7  13  12
   63      3    3   1   6   7
   64      3    3   4   2  16
   65      3    3   4   2   7
   66      3    3   1   6  11
   67      3    4   2   7  13
   68      3    4   3   1  15
   69      3    4   2   7   6
   70      3    4   3   1   6
   71      3    5  12  13   7
   72      3    6  11  10  14
   73      3    6   7  13  12
   74      3    6   7   2  16
   75      3    6   1   3  17
   76      3    7   6  11  10
   77      3    7   6  11   8
   78      3    7   2   4  18
   79      3    7   6   1  15
   80      3    7  13  12   9
   81      3    8  11  10  14
   82      3    9  12   5  19
   83      3    9  12   5  21
   84      3    9  12   5  20
   85      3   11   6   1  15
   86      3   11   6   7  13
   87      3   13  12   5  19
   88      3   13  12   5  21
   89      3   13  12   5  20
   90      3   13   7   2  16
   91      3   15   1   3  17
   92      3   16   2   4  18
   93      3   17   3   4  18

          INDEP./SYM. INTERNAL COORDINATES
          --------------------------------
 CRD  1=   0.1960 ( 15) -0.3007 ( 24) -0.4223 ( 26) -0.1242 ( 38)  0.4903 ( 39)
           0.1966 ( 41)  0.1629 ( 42)  0.3805 ( 43)  0.1251 ( 62) -0.2707 ( 71)
           0.1414 ( 73) -0.1593 ( 80)
 CRD  2=  -0.3044 ( 36)  0.7977 ( 42)  0.2132 ( 46) -0.1865 ( 54) -0.1516 ( 62)
           0.1707 ( 67) -0.1774 ( 86)  0.1203 ( 90)
 CRD  3=  -0.1175 (  3)  0.1672 (  4)  0.1374 (  5)  0.1192 ( 11)  0.1077 ( 15)
           0.1849 ( 16)  0.1303 ( 21) -0.3676 ( 24)  0.3228 ( 26) -0.1471 ( 28)
           0.1907 ( 36) -0.1161 ( 37) -0.1551 ( 38) -0.1761 ( 39)  0.2107 ( 41)
           0.2749 ( 43)  0.1375 ( 49)  0.1490 ( 62)  0.3442 ( 71)  0.1639 ( 73)
           0.2825 ( 80)
 CRD  4=  -0.1400 (  4)  0.1763 ( 24) -0.1298 ( 26) -0.1760 ( 36) -0.1124 ( 41)
          -0.1238 ( 43)  0.1077 ( 46) -0.1041 ( 48)  0.1019 ( 58)  0.1157 ( 60)
           0.5007 ( 62)  0.2150 ( 71)  0.5172 ( 73)  0.3044 ( 80)  0.1045 ( 87)
           0.1351 ( 88)
 CRD  5=   0.1666 (  2)  0.2523 ( 11) -0.1112 ( 14)  0.3550 ( 16)  0.2519 ( 21)
           0.1708 ( 24) -0.1488 ( 28)  0.3924 ( 36) -0.2407 ( 37)  0.1535 ( 38)
           0.1637 ( 39) -0.2769 ( 41)  0.1860 ( 42) -0.2705 ( 43)  0.1227 ( 45)
          -0.1521 ( 46)  0.1500 ( 48) -0.1199 ( 71)
 CRD  6=  -0.2756 (  2) -0.1765 (  3) -0.1457 (  4) -0.4308 ( 14) -0.1607 ( 15)
          -0.1198 ( 19) -0.1458 ( 20) -0.2149 ( 24)  0.2081 ( 25)  0.1238 ( 31)
          -0.1786 ( 36) -0.1837 ( 41)  0.2254 ( 45)  0.1501 ( 46) -0.1172 ( 49)
           0.1050 ( 54)  0.1079 ( 56)  0.2052 ( 58)  0.1711 ( 60) -0.1542 ( 66)
          -0.1017 ( 71) -0.1737 ( 72)  0.1447 ( 76)  0.1682 ( 86)
 CRD  7=   0.1535 (  2)  0.1220 (  3)  0.1727 (  4)  0.3207 ( 14)  0.1225 ( 20)
           0.2010 ( 21)  0.1291 ( 24) -0.1524 ( 25) -0.1154 ( 36)  0.1534 ( 41)
          -0.1723 ( 45)  0.1644 ( 46)  0.1482 ( 54)  0.1564 ( 56)  0.2814 ( 58)
           0.2307 ( 60) -0.1547 ( 62) -0.1453 ( 63) -0.2135 ( 66) -0.2338 ( 72)
          -0.1472 ( 73)  0.2072 ( 76) -0.1373 ( 85)  0.2225 ( 86)
 CRD  8=   0.2226 (  4)  0.1170 (  5) -0.2459 ( 15)  0.1945 ( 26)  0.1051 ( 29)
          -0.1817 ( 39)  0.1370 ( 41)  0.3654 ( 48) -0.3987 ( 49)  0.1510 ( 62)
          -0.3117 ( 71)  0.1387 ( 73)  0.2255 ( 87)  0.2325 ( 88)  0.3376 ( 89)
 CRD  9=   0.1461 (  4)  0.1171 ( 15)  0.1861 ( 17)  0.3353 ( 20) -0.1084 ( 24)
          -0.1674 ( 38) -0.2558 ( 41)  0.1621 ( 43)  0.4232 ( 45)  0.6523 ( 47)
 CRD 10=   0.4394 ( 11)  0.1081 ( 18) -0.1364 ( 36)  0.4697 ( 37) -0.1237 ( 42)
          -0.3334 ( 46)  0.5480 ( 50) -0.1865 ( 52) -0.1873 ( 53)
 CRD 11=   0.2341 (  2) -0.2693 (  4) -0.1378 (  6)  0.1680 (  8) -0.1281 ( 14)
          -0.2790 ( 15) -0.1987 ( 17)  0.1293 ( 19)  0.2786 ( 20)  0.1337 ( 22)
          -0.2162 ( 23)  0.1490 ( 35) -0.4424 ( 38)  0.3327 ( 41) -0.1111 ( 43)
          -0.2381 ( 44)  0.1098 ( 45)  0.1882 ( 47)
 CRD 12=   0.1603 (  3)  0.1847 (  7)  0.1531 ( 11) -0.2980 ( 21)  0.1319 ( 31)
           0.1331 ( 32)  0.1009 ( 36)  0.1202 ( 37) -0.1533 ( 40) -0.2212 ( 46)
           0.2159 ( 48)  0.1126 ( 49) -0.1959 ( 50) -0.1358 ( 51) -0.1660 ( 54)
           0.2865 ( 58)  0.1335 ( 59) -0.1796 ( 66)  0.2456 ( 67)  0.1743 ( 69)
           0.1552 ( 70) -0.2092 ( 72)  0.1768 ( 75)  0.1716 ( 76) -0.1464 ( 78)
           0.1502 ( 90)
 CRD 13=   0.1264 (  2) -0.2931 (  3) -0.2145 (  5) -0.4588 (  7) -0.1503 (  8)
          -0.2303 (  9) -0.1719 ( 21)  0.1120 ( 22)  0.1538 ( 27) -0.2188 ( 31)
          -0.2340 ( 32) -0.1676 ( 33) -0.1320 ( 34) -0.1021 ( 38)  0.2818 ( 40)
           0.1719 ( 44) -0.1215 ( 50)  0.1393 ( 58)  0.1134 ( 67)
 CRD 14=  -0.3214 (  3)  0.4205 (  5)  0.1066 (  6) -0.3051 ( 22) -0.1082 ( 27)
           0.2985 ( 29)  0.1125 ( 30) -0.3194 ( 31) -0.1903 ( 32)  0.2365 ( 33)
           0.3420 ( 34)  0.2069 ( 40) -0.2728 ( 44)
 CRD 15=   0.2470 (  1)  0.2026 (  2) -0.1185 (  3)  0.2131 (  6)  0.3860 (  7)
           0.2407 ( 15) -0.2505 ( 22)  0.1292 ( 25)  0.1696 ( 27) -0.3231 ( 29)
          -0.2081 ( 30)  0.1534 ( 32)  0.2062 ( 33) -0.1888 ( 35) -0.1237 ( 38)
           0.2903 ( 40)  0.1388 ( 41)  0.2166 ( 44)  0.1323 ( 48) -0.1570 ( 49)
 CRD 16=   0.2402 (  1)  0.1122 (  2)  0.2465 (  3)  0.2795 (  5)  0.2353 (  6)
           0.1935 ( 15)  0.2765 ( 22)  0.1396 ( 25)  0.1570 ( 27)  0.2163 ( 29)
          -0.2092 ( 30)  0.2494 ( 31) -0.3733 ( 32) -0.3310 ( 33)  0.2588 ( 34)
          -0.2063 ( 35) -0.1029 ( 49)
 CRD 17=   0.1385 (  8) -0.2420 ( 11)  0.1230 ( 16) -0.1412 ( 18) -0.1371 ( 23)
          -0.1301 ( 28)  0.1150 ( 30) -0.1007 ( 34) -0.2252 ( 48) -0.1893 ( 49)
           0.1728 ( 50)  0.1860 ( 51) -0.1269 ( 55) -0.1609 ( 56) -0.1340 ( 57)
           0.2486 ( 58)  0.2902 ( 59) -0.1992 ( 60)  0.1158 ( 66)  0.1393 ( 74)
           0.2865 ( 76)  0.3281 ( 77)  0.1065 ( 79)  0.1416 ( 85)
 CRD 18=  -0.1073 (  1)  0.1403 (  2)  0.1374 (  5)  0.2603 (  8) -0.1127 (  9)
          -0.2155 ( 11)  0.1033 ( 15) -0.1514 ( 18) -0.2355 ( 21)  0.1210 ( 22)
          -0.2476 ( 23)  0.1656 ( 27) -0.1710 ( 28) -0.1018 ( 29)  0.1520 ( 30)
           0.1266 ( 33)  0.1093 ( 37)  0.1384 ( 38) -0.1220 ( 41) -0.1117 ( 42)
          -0.2169 ( 49)  0.1121 ( 53) -0.1438 ( 58) -0.2105 ( 59)  0.1281 ( 60)
          -0.1510 ( 66)  0.1379 ( 67) -0.2103 ( 76) -0.2770 ( 77) -0.1062 ( 78)
          -0.1249 ( 85)
 CRD 19=   0.2835 (  4)  0.1040 (  6)  0.1098 (  9) -0.1154 ( 11)  0.1320 ( 12)
          -0.1479 ( 13) -0.1145 ( 14) -0.1261 ( 18) -0.1083 ( 21) -0.1223 ( 34)
           0.1478 ( 44) -0.4872 ( 48)  0.3284 ( 49)  0.2026 ( 52) -0.1450 ( 53)
          -0.2764 ( 71) -0.1063 ( 77) -0.1978 ( 80)  0.1015 ( 83)  0.1672 ( 87)
           0.1781 ( 88)  0.1400 ( 89)
 CRD 20=   0.1355 (  1) -0.1062 (  5) -0.1621 (  6) -0.2438 (  8)  0.1777 (  9)
           0.1385 ( 10) -0.1463 ( 11) -0.1068 ( 12) -0.3185 ( 18) -0.1010 ( 22)
           0.2144 ( 23) -0.2006 ( 27) -0.1253 ( 30)  0.1075 ( 32) -0.1134 ( 33)
           0.2449 ( 36) -0.1488 ( 37) -0.1190 ( 44) -0.3461 ( 49)  0.2797 ( 50)
           0.2192 ( 51)  0.1229 ( 67)  0.1138 ( 71) -0.1080 ( 77)
 CRD 21=  -0.2269 (  1) -0.2225 (  2) -0.1431 (  3) -0.1602 (  4) -0.1114 (  5)
           0.2042 (  6) -0.3328 (  9)  0.1653 ( 14) -0.1204 ( 15) -0.1782 ( 16)
          -0.1707 ( 18)  0.1024 ( 21) -0.1186 ( 23)  0.1811 ( 27)  0.1729 ( 28)
          -0.1000 ( 29)  0.1774 ( 34) -0.2399 ( 35)  0.2516 ( 36) -0.2250 ( 37)
          -0.1291 ( 40)  0.1293 ( 42) -0.1361 ( 45) -0.1120 ( 48)  0.2193 ( 50)
          -0.1283 ( 53)
 CRD 22=  -0.1612 ( 10) -0.1694 ( 12) -0.1632 ( 13)  0.1082 ( 18)  0.1152 ( 21)
           0.1376 ( 46)  0.1468 ( 54) -0.1338 ( 58) -0.1274 ( 60)  0.1249 ( 61)
           0.1062 ( 62) -0.2235 ( 63) -0.2720 ( 64) -0.2300 ( 65)  0.2461 ( 68)
           0.2100 ( 69)  0.2052 ( 70)  0.2961 ( 72)  0.2523 ( 74)  0.1056 ( 75)
           0.1650 ( 77) -0.1211 ( 78) -0.2649 ( 79)  0.1472 ( 81) -0.1337 ( 85)
           0.1291 ( 90)  0.1465 ( 91) -0.1631 ( 92)
 CRD 23=  -0.4432 ( 10) -0.1382 ( 11) -0.4563 ( 12) -0.4564 ( 13) -0.1126 ( 18)
           0.1651 ( 48)  0.1553 ( 49)  0.1963 ( 50) -0.1513 ( 51) -0.1885 ( 52)
          -0.1807 ( 53)  0.1166 ( 64) -0.1364 ( 72)  0.1062 ( 79)
 CRD 24=  -0.1122 (  1)  0.1442 (  3)  0.1462 (  4)  0.2055 (  6)  0.2052 (  8)
           0.1075 ( 11)  0.1495 ( 12) -0.1138 ( 14) -0.2067 ( 16)  0.1783 ( 17)
          -0.2926 ( 19) -0.1795 ( 25) -0.1009 ( 26)  0.1568 ( 28)  0.1068 ( 30)
          -0.1876 ( 31) -0.1159 ( 37) -0.2771 ( 38)  0.3400 ( 45) -0.3949 ( 47)
          -0.1105 ( 88) -0.1119 ( 89)
 CRD 25=  -0.5895 ( 10)  0.2534 ( 12)  0.3544 ( 13)  0.3917 ( 51) -0.1605 ( 52)
          -0.2343 ( 53)  0.2128 ( 82) -0.2244 ( 83)  0.2186 ( 87) -0.2187 ( 88)
 CRD 26=  -0.5353 ( 12)  0.4907 ( 13)  0.3647 ( 52) -0.3319 ( 53) -0.1546 ( 82)
          -0.1144 ( 83)  0.2547 ( 84) -0.1417 ( 87) -0.1015 ( 88)  0.2677 ( 89)
 CRD 27=   0.1133 ( 10)  0.2699 ( 18)  0.2176 ( 21) -0.1681 ( 42)  0.1606 ( 46)
          -0.2553 ( 55) -0.1262 ( 56) -0.2874 ( 57) -0.1564 ( 59) -0.2709 ( 61)
           0.1915 ( 64)  0.1581 ( 65)  0.2264 ( 68)  0.2114 ( 70) -0.1825 ( 72)
           0.1950 ( 75) -0.1279 ( 76) -0.2485 ( 77)  0.1260 ( 78) -0.1059 ( 85)
           0.2100 ( 91)  0.1595 ( 92) -0.2389 ( 93)
 CRD 28=   0.2003 (  1)  0.1130 (  2) -0.2293 (  4) -0.2522 (  6)  0.2324 ( 14)
           0.4824 ( 17) -0.1206 ( 19)  0.1744 ( 20) -0.1150 ( 24)  0.1178 ( 26)
           0.1342 ( 34) -0.1005 ( 39) -0.1846 ( 44) -0.2401 ( 47) -0.1227 ( 62)
          -0.1042 ( 73)  0.1898 ( 82)  0.1906 ( 83)  0.1554 ( 84)  0.2394 ( 87)
           0.2402 ( 88)  0.2050 ( 89)
 CRD 29=   0.1211 (  3)  0.2579 (  8)  0.1221 ( 10) -0.1289 ( 14) -0.2476 ( 16)
          -0.2978 ( 17) -0.3899 ( 20) -0.2112 ( 31) -0.1528 ( 37)  0.1828 ( 40)
           0.1974 ( 43)  0.1195 ( 46)  0.2822 ( 47)  0.1037 ( 55) -0.1111 ( 62)
           0.1578 ( 82)  0.1475 ( 83)  0.1276 ( 84)  0.1440 ( 87)  0.1336 ( 88)
           0.1138 ( 89)
 CRD 30=   0.2085 ( 59)  0.1558 ( 60) -0.2637 ( 61)  0.2556 ( 64) -0.1436 ( 66)
           0.5438 ( 72) -0.2571 ( 74)  0.2589 ( 75)  0.1302 ( 77)  0.4134 ( 81)
          -0.1706 ( 90) -0.1051 ( 93)
 CRD 31=   0.1094 ( 10)  0.1351 ( 17)  0.3409 ( 18)  0.1382 ( 20)  0.1187 ( 21)
          -0.1046 ( 34) -0.1832 ( 37) -0.2395 ( 42)  0.2022 ( 46) -0.1975 ( 54)
           0.2496 ( 55) -0.1042 ( 65)  0.2132 ( 67) -0.2310 ( 68)  0.1034 ( 69)
           0.1440 ( 73) -0.2683 ( 78)  0.2274 ( 79) -0.1004 ( 82) -0.1063 ( 83)
           0.1582 ( 85) -0.1222 ( 86) -0.1489 ( 92)  0.1171 ( 93)
 CRD 32=  -0.3941 (  1)  0.2822 (  6) -0.2400 (  8) -0.1075 ( 12)  0.1751 ( 15)
           0.3360 ( 16) -0.1609 ( 17)  0.2273 ( 18)  0.1328 ( 21)  0.1283 ( 22)
          -0.2037 ( 29)  0.2080 ( 32) -0.1593 ( 33)  0.1654 ( 34) -0.1128 ( 38)
          -0.1029 ( 42) -0.1510 ( 44) -0.1009 ( 62)  0.1524 ( 82)  0.1655 ( 83)
           0.1242 ( 84)  0.1046 ( 87)  0.1177 ( 88)
 CRD 33=  -0.2975 (  1) -0.2124 (  3) -0.2058 (  4)  0.1294 (  5)  0.1064 (  7)
           0.5967 (  9) -0.1975 ( 16)  0.1668 ( 17) -0.1375 ( 18)  0.1895 ( 19)
           0.1243 ( 20)  0.2360 ( 22)  0.1453 ( 25) -0.1964 ( 33) -0.1282 ( 34)
           0.1612 ( 44)
 CRD 34=  -0.1992 (  1) -0.2436 (  2) -0.1923 (  5) -0.3602 (  6)  0.1887 (  7)
           0.4460 (  8)  0.2232 ( 15)  0.1497 ( 16)  0.1025 ( 18)  0.1802 ( 20)
          -0.1184 ( 22)  0.1076 ( 24) -0.1344 ( 26)  0.2678 ( 29) -0.2659 ( 32)
           0.1684 ( 44) -0.1187 ( 47)
 CRD 35=   0.1219 (  2)  0.1301 (  5) -0.2484 (  8)  0.1005 ( 10)  0.1555 ( 13)
           0.1173 ( 15) -0.1252 ( 16) -0.2315 ( 17) -0.1511 ( 18) -0.2696 ( 19)
          -0.1286 ( 21) -0.1931 ( 22)  0.1342 ( 24) -0.1297 ( 26)  0.1054 ( 29)
           0.2378 ( 31) -0.1282 ( 32)  0.2308 ( 33) -0.1880 ( 34)  0.2013 ( 39)
          -0.2963 ( 40) -0.1117 ( 43)  0.1383 ( 44)  0.1366 ( 46) -0.1363 ( 52)
           0.1609 ( 71)  0.1954 ( 82)  0.1851 ( 83)  0.1300 ( 84)
 CRD 36=   0.1993 (  1)  0.1426 (  3)  0.2654 (  6) -0.1570 (  7) -0.1317 (  9)
          -0.2877 ( 14) -0.1123 ( 15)  0.1969 ( 17)  0.6570 ( 19) -0.1181 ( 26)
           0.1312 ( 39) -0.1360 ( 47)  0.1633 ( 71)  0.1665 ( 82)  0.1651 ( 83)
           0.1024 ( 84)
 CRD 37=   0.2284 (  1) -0.1717 (  4)  0.2103 (  6) -0.1099 (  7)  0.2342 (  9)
          -0.1742 ( 10) -0.2068 ( 12) -0.1334 ( 13) -0.2236 ( 15) -0.1807 ( 16)
           0.2578 ( 18) -0.2091 ( 19)  0.2370 ( 21) -0.1541 ( 34)  0.1661 ( 36)
           0.1506 ( 37)  0.1551 ( 42)  0.1488 ( 44) -0.3163 ( 46) -0.1530 ( 48)
          -0.1653 ( 49) -0.1669 ( 50)  0.1675 ( 51)  0.1337 ( 52)  0.1876 ( 53)
 CRD 38=   0.2644 (  1) -0.2870 (  2) -0.1726 (  5)  0.3230 (  6) -0.1784 (  7)
           0.3535 (  8)  0.1491 (  9)  0.1218 ( 13) -0.1855 ( 15)  0.3207 ( 16)
          -0.1336 ( 18) -0.3501 ( 19)  0.2002 ( 20) -0.1085 ( 36) -0.1029 ( 42)
          -0.1790 ( 45)  0.1298 ( 46) -0.1014 ( 51)
 CRD 39=   0.1536 ( 10) -0.1428 ( 12) -0.1081 ( 13)  0.4409 ( 18) -0.1125 ( 19)
           0.2139 ( 20) -0.4520 ( 21)  0.1299 ( 36) -0.1661 ( 37) -0.1103 ( 45)
           0.1682 ( 51) -0.1617 ( 55)  0.1475 ( 58)  0.1535 ( 61) -0.1849 ( 75)
           0.2005 ( 78)  0.2286 ( 81) -0.1205 ( 91)  0.1246 ( 92)
 CRD 40=  -0.1616 (  3) -0.1861 (  4) -0.2037 (  5)  0.1563 (  6) -0.1098 (  7)
           0.1054 (  8)  0.2688 (  9)  0.2778 ( 14)  0.2720 ( 16)  0.1366 ( 18)
           0.2475 ( 19) -0.3885 ( 20) -0.1866 ( 21)  0.1015 ( 24) -0.1042 ( 25)
           0.1285 ( 31) -0.2237 ( 38) -0.1028 ( 39) -0.1352 ( 40)  0.2865 ( 45)
           0.1264 ( 81)
 CRD 41=  -0.2424 (  1)  0.1989 (  2)  0.1372 (  4) -0.1374 (  5)  0.2644 (  7)
          -0.1241 (  9)  0.1183 ( 13) -0.3267 ( 15)  0.1631 ( 16)  0.4306 ( 17)
          -0.1196 ( 19) -0.3362 ( 20) -0.1235 ( 26)  0.1613 ( 29) -0.1189 ( 30)
          -0.1158 ( 32)  0.1910 ( 41) -0.1115 ( 45)  0.2451 ( 47)  0.1199 ( 82)
           0.1154 ( 83)
 CRD 42=   0.1140 ( 10) -0.1028 ( 13)  0.2204 ( 18) -0.3709 ( 21)  0.1018 ( 42)
           0.1123 ( 51)  0.1436 ( 54)  0.1770 ( 55)  0.1069 ( 56) -0.2298 ( 58)
           0.1122 ( 59) -0.1125 ( 61)  0.1292 ( 64) -0.1131 ( 72) -0.1966 ( 74)
           0.1642 ( 75)  0.2690 ( 77) -0.1626 ( 78) -0.1546 ( 79) -0.4361 ( 81)
          -0.2314 ( 90)  0.2254 ( 91)
 CRD 43=   0.2248 (  1) -0.4477 (  3)  0.4104 (  4) -0.1254 (  5) -0.2001 (  6)
           0.1750 (  7) -0.1650 ( 12)  0.1318 ( 13)  0.1466 ( 14) -0.1841 ( 15)
          -0.1616 ( 17)  0.1839 ( 22)  0.1055 ( 30) -0.1879 ( 33)  0.2012 ( 34)
          -0.1075 ( 35)  0.1014 ( 39) -0.1500 ( 40) -0.1153 ( 41)  0.1203 ( 53)
          -0.1098 ( 80)  0.1399 ( 82)  0.1352 ( 83) -0.1532 ( 89)
 CRD 44=  -0.1695 (  1)  0.2526 (  2)  0.1048 (  4) -0.3026 (  5)  0.2006 (  6)
           0.1630 (  8) -0.1404 ( 10)  0.4431 ( 11) -0.1566 ( 13) -0.1413 ( 14)
          -0.1405 ( 16) -0.1869 ( 18) -0.1500 ( 22)  0.1140 ( 23)  0.1314 ( 26)
          -0.1356 ( 28) -0.1121 ( 30)  0.2036 ( 31)  0.1412 ( 35) -0.2266 ( 44)
           0.1493 ( 46) -0.1175 ( 48) -0.1377 ( 49) -0.1263 ( 50)  0.1122 ( 51)
           0.1774 ( 52)
 CRD 45=  -0.3177 (  2)  0.3064 (  5) -0.1145 (  6) -0.1092 (  9) -0.1142 ( 10)
           0.4390 ( 11) -0.1618 ( 12)  0.2117 ( 14) -0.1651 ( 18) -0.2336 ( 20)
          -0.1019 ( 21) -0.1067 ( 31)  0.1381 ( 32) -0.1830 ( 38) -0.1613 ( 43)
           0.1360 ( 44)  0.1858 ( 46) -0.1324 ( 48) -0.1103 ( 49) -0.1164 ( 50)
           0.1177 ( 51)  0.1658 ( 53)
 CRD 46=   0.1137 (  3) -0.1471 (  4) -0.1549 (  5)  0.3218 (  7) -0.3053 (  8)
           0.2291 ( 11) -0.2241 ( 15)  0.2976 ( 16) -0.2138 ( 17)  0.2084 ( 20)
          -0.1149 ( 21)  0.1432 ( 22) -0.2152 ( 23) -0.1431 ( 24)  0.1478 ( 28)
           0.1726 ( 29) -0.1630 ( 31) -0.2193 ( 32)  0.1535 ( 38) -0.1705 ( 41)
           0.2063 ( 43)  0.1313 ( 46) -0.1018 ( 47)
 CRD 47=   0.1709 (  1) -0.2482 (  6) -0.1721 (  7) -0.1274 (  8)  0.2891 (  9)
          -0.4030 ( 14)  0.1155 ( 15)  0.1436 ( 16)  0.2275 ( 17) -0.1602 ( 23)
           0.1736 ( 24) -0.2174 ( 25)  0.2598 ( 27)  0.1700 ( 28) -0.1923 ( 29)
           0.1846 ( 30)  0.1449 ( 33)  0.1921 ( 34) -0.2369 ( 35) -0.1500 ( 40)
           0.1499 ( 41) -0.1591 ( 45)  0.1305 ( 47)
 CRD 48=  -0.1044 (  1)  0.1472 (  3) -0.1286 (  7) -0.1447 ( 12) -0.1157 ( 21)
           0.1469 ( 42) -0.1354 ( 52)  0.1983 ( 54) -0.2355 ( 61) -0.2625 ( 64)
          -0.1860 ( 67) -0.2398 ( 68)  0.2451 ( 74)  0.2334 ( 75)  0.2249 ( 79)
          -0.1590 ( 80)  0.1196 ( 82)  0.2262 ( 85)  0.1973 ( 86) -0.1301 ( 89)
          -0.2361 ( 92) -0.2620 ( 93)
 CRD 49=   0.1600 (  1) -0.2711 (  3)  0.2320 (  7) -0.1702 (  9)  0.2300 ( 12)
          -0.2543 ( 13)  0.1500 ( 22)  0.1189 ( 24) -0.1426 ( 27)  0.1344 ( 30)
          -0.1697 ( 33) -0.1021 ( 34) -0.1210 ( 40)  0.1516 ( 52) -0.1922 ( 53)
           0.1003 ( 54) -0.1129 ( 61) -0.1052 ( 62) -0.1440 ( 64) -0.1359 ( 68)
           0.1376 ( 71) -0.1849 ( 73)  0.1298 ( 74)  0.1179 ( 75)  0.1228 ( 79)
           0.2322 ( 80) -0.1274 ( 83)  0.1496 ( 84)  0.1291 ( 85)  0.2415 ( 89)
          -0.1036 ( 92) -0.1533 ( 93)
 CRD 50=   0.1086 (  1) -0.3385 (  2)  0.1630 (  3)  0.1625 (  4) -0.3202 (  5)
           0.1002 (  6)  0.1605 (  7) -0.2040 (  8)  0.1013 (  9)  0.1698 ( 15)
          -0.2177 ( 16) -0.1108 ( 20)  0.1070 ( 22) -0.2130 ( 23)  0.1071 ( 25)
           0.1058 ( 27) -0.2183 ( 28)  0.1108 ( 30) -0.1894 ( 31) -0.1867 ( 32)
           0.1060 ( 33)  0.1069 ( 35) -0.1207 ( 38)  0.1160 ( 39) -0.1937 ( 43)
          -0.1882 ( 44)  0.1195 ( 59) -0.1047 ( 76) -0.1400 ( 81)
 CRD 51=   0.1422 (  2)  0.1249 (  5) -0.1137 ( 10)  0.1032 ( 16) -0.2241 ( 55)
           0.1206 ( 56) -0.1717 ( 58)  0.2966 ( 59)  0.2138 ( 60) -0.1220 ( 63)
          -0.2065 ( 66)  0.1205 ( 67) -0.1564 ( 68) -0.2633 ( 76)  0.2050 ( 77)
           0.2205 ( 78) -0.3503 ( 81)  0.1644 ( 90) -0.2059 ( 91)  0.1774 ( 92)
          -0.1745 ( 93)
 CRD 52=   0.1353 (  1) -0.2170 (  3) -0.3107 (  4)  0.1592 (  6)  0.2071 (  7)
          -0.1350 (  9) -0.1811 ( 12)  0.2001 ( 13) -0.2244 ( 14)  0.3213 ( 15)
           0.1128 ( 22)  0.1489 ( 24) -0.1838 ( 25)  0.1788 ( 26) -0.1503 ( 27)
           0.1387 ( 29)  0.1564 ( 30) -0.1154 ( 33) -0.1470 ( 34)  0.1666 ( 35)
          -0.1880 ( 39) -0.1532 ( 40) -0.1272 ( 52)  0.1430 ( 53) -0.1976 ( 71)
          -0.1731 ( 80) -0.1908 ( 84) -0.1671 ( 89)
 CRD 53=  -0.4093 ( 10)  0.2068 ( 12)  0.2014 ( 13)  0.1827 ( 18) -0.2133 ( 21)
           0.2222 ( 36) -0.2257 ( 37) -0.1131 ( 48) -0.1136 ( 49)  0.2486 ( 50)
          -0.3027 ( 51)  0.1489 ( 52)  0.1456 ( 53) -0.2588 ( 82)  0.2666 ( 83)
          -0.2621 ( 87)  0.2633 ( 88)
 CRD 54=   0.1719 ( 12) -0.1682 ( 13)  0.1653 ( 48) -0.1693 ( 49)  0.1224 ( 52)
          -0.1191 ( 53)  0.1920 ( 62)  0.1947 ( 73) -0.4674 ( 80)  0.2254 ( 82)
           0.2316 ( 83)  0.4765 ( 84) -0.2975 ( 87) -0.2914 ( 88)
 CRD 55=   0.1907 ( 54) -0.1578 ( 55) -0.1051 ( 56) -0.1235 ( 57) -0.1322 ( 59)
          -0.1590 ( 60)  0.1922 ( 61)  0.1799 ( 62) -0.1824 ( 63)  0.1813 ( 64)
          -0.1610 ( 65) -0.1331 ( 66)  0.2775 ( 69)  0.2985 ( 70) -0.1027 ( 73)
          -0.1266 ( 78)  0.1957 ( 79)  0.2449 ( 85)  0.1368 ( 86) -0.3434 ( 90)
          -0.3900 ( 91)  0.2156 ( 92)  0.1578 ( 93)
 CRD 56=  -0.1294 ( 56) -0.3384 ( 57)  0.2237 ( 59)  0.1371 ( 60)  0.3054 ( 65)
          -0.1469 ( 66) -0.1725 ( 67)  0.1555 ( 68)  0.1364 ( 70) -0.1370 ( 73)
           0.1751 ( 74) -0.1704 ( 75) -0.2396 ( 76) -0.1172 ( 78) -0.1663 ( 85)
           0.2454 ( 86) -0.1512 ( 91) -0.3614 ( 92)  0.3914 ( 93)
 CRD 57=   0.3355 ( 56) -0.2212 ( 57) -0.2313 ( 59) -0.1160 ( 62) -0.3193 ( 63)
           0.2364 ( 65) -0.2985 ( 69)  0.2665 ( 70)  0.1764 ( 73)  0.2459 ( 76)
           0.1034 ( 77)  0.2606 ( 85) -0.3105 ( 86)  0.2157 ( 90) -0.1999 ( 91)
          -0.1787 ( 92)  0.1687 ( 93)

 THE DETERMINANT OF THE G MATRIX IS 10**(   -39)


                     --------------------
                     INTERNAL COORDINATES
                     --------------------

                 - - ATOMS - -         COORDINATE      COORDINATE
 NO.   TYPE    I  J  K  L  M  N        (BOHR,RAD)       (ANG,DEG)
 ----------------------------------------------------------------
   1 STRETCH   1 15                     2.0585174       1.0893206
   2 STRETCH   1  6                     2.6552857       1.4051168
   3 STRETCH   1  3                     2.6424106       1.3983036
   4 STRETCH   2  7                     2.6466789       1.4005623
   5 STRETCH   2  4                     2.6335099       1.3935935
   6 STRETCH   2 16                     2.0532122       1.0865132
   7 STRETCH   3  4                     2.6328800       1.3932602
   8 STRETCH   3 17                     2.0549991       1.0874588
   9 STRETCH   4 18                     2.0543808       1.0871316
  10 STRETCH   5 20                     2.0683547       1.0945263
  11 STRETCH   5 12                     2.8332959       1.4993157
  12 STRETCH   5 21                     2.0643913       1.0924289
  13 STRETCH   5 19                     2.0652964       1.0929079
  14 STRETCH   6 11                     2.8062309       1.4849936
  15 STRETCH   6  7                     2.6480996       1.4013140
  16 STRETCH   7 13                     2.6398326       1.3969394
  17 STRETCH   8 11                     2.3033318       1.2188708
  18 STRETCH   9 12                     2.3131322       1.2240570
  19 STRETCH  10 14                     1.8531118       0.9806246
  20 STRETCH  10 11                     2.5394488       1.3438185
  21 STRETCH  12 13                     2.6267240       1.3900026
  22 BEND      1  3 17                  2.0919691     119.8610017
  23 BEND      1  3  4                  2.0957287     120.0764109
  24 BEND      1  6 11                  2.0337311     116.5242061
  25 BEND      1  6  7                  2.0646736     118.2970814
  26 BEND      2  7 13                  2.0294516     116.2790109
  27 BEND      2  4  3                  2.0925713     119.8955066
  28 BEND      2  7  6                  2.1113874     120.9735895
  29 BEND      2  4 18                  2.0954361     120.0596443
  30 BEND      3  1  6                  2.1089402     120.8333738
  31 BEND      3  1 15                  2.0764424     118.9713845
  32 BEND      3  4 18                  2.0951749     120.0446779
  33 BEND      4  3 17                  2.0954866     120.0625393
  34 BEND      4  2 16                  2.0914436     119.8308917
  35 BEND      4  2  7                  2.0927521     119.9058647
  36 BEND      5 12 13                  1.8981990     108.7587929
  37 BEND      5 12  9                  2.1702244     124.3446966
  38 BEND      6 11  8                  2.1820097     125.0199440
  39 BEND      6  7 13                  2.1414629     122.6967836
  40 BEND      6  1 15                  2.0978000     120.1950844
  41 BEND      6 11 10                  2.0067905     114.9806263
  42 BEND      7 13 12                  1.9638901     112.5226161
  43 BEND      7  6 11                  2.1847565     125.1773258
  44 BEND      7  2 16                  2.0989601     120.2615522
  45 BEND      8 11 10                  2.0943082     119.9950202
  46 BEND      9 12 13                  2.2147348     126.8949581
  47 BEND     11 10 14                  1.8001987     103.1437902
  48 BEND     12  5 19                  1.9179075     109.8880032
  49 BEND     12  5 21                  1.9172793     109.8520119
  50 BEND     12  5 20                  1.9075970     109.2972554
  51 BEND     19  5 21                  1.9317990     110.6839321
  52 BEND     19  5 20                  1.8930765     108.4652939
  53 BEND     20  5 21                  1.8957340     108.6175586
  54 TORSION   1  6  7 13               3.1223517     178.8975728
  55 TORSION   1  3  4 18              -3.1385395    -179.8250669
  56 TORSION   1  6  7  2               0.0276156       1.5822586
  57 TORSION   1  3  4  2               0.0056790       0.3253817
  58 TORSION   1  6 11 10              -3.0766420    -176.2786037
  59 TORSION   1  6 11  8               0.0515500       2.9535980
  60 TORSION   2  7  6 11              -3.1062198    -177.9732863
  61 TORSION   2  4  3 17              -3.1373077    -179.7544903
  62 TORSION   2  7 13 12              -1.6797643     -96.2434067
  63 TORSION   3  1  6  7              -0.0132193      -0.7574079
  64 TORSION   3  4  2 16              -3.1412941    -179.9828964
  65 TORSION   3  4  2  7               0.0085333       0.4889248
  66 TORSION   3  1  6 11               3.1212870     178.8365718
  67 TORSION   4  2  7 13              -3.1232153    -178.9470544
  68 TORSION   4  3  1 15               3.1358479     179.6708475
  69 TORSION   4  2  7  6              -0.0255975      -1.4666309
  70 TORSION   4  3  1  6              -0.0032312      -0.1851361
  71 TORSION   5 12 13  7              -3.0995024    -177.5884063
  72 TORSION   6 11 10 14               3.1392003     179.8629283
  73 TORSION   6  7 13 12               1.5066327      86.3236967
  74 TORSION   6  7  2 16               3.1242658     179.0072461
  75 TORSION   6  1  3 17               3.1397526     179.8945741
  76 TORSION   7  6 11 10               0.0573169       3.2840171
  77 TORSION   7  6 11  8              -3.0976764    -177.4837812
  78 TORSION   7  2  4 18              -3.1304331    -179.3606039
  79 TORSION   7  6  1 15               3.1309176     179.3883653
  80 TORSION   7 13 12  9               0.0497767       2.8519944
  81 TORSION   8 11 10 14               0.0102792       0.5889540
  82 TORSION   9 12  5 19              -2.1039315    -120.5463956
  83 TORSION   9 12  5 21               2.0499060     117.4509600
  84 TORSION   9 12  5 20              -0.0284468      -1.6298835
  85 TORSION  11  6  1 15              -0.0177614      -1.0176550
  86 TORSION  11  6  7 13              -0.0114838      -0.6579722
  87 TORSION  13 12  5 19               1.0451063      59.8801789
  88 TORSION  13 12  5 21              -1.0842416     -62.1224656
  89 TORSION  13 12  5 20               3.1205909     178.7966910
  90 TORSION  13  7  2 16               0.0266481       1.5268227
  91 TORSION  15  1  3 17              -0.0043536      -0.2494423
  92 TORSION  16  2  4 18               0.0029247       0.1675749
  93 TORSION  17  3  4 18               0.0016591       0.0950611

     ------------------------------------------
     THE POINT GROUP IS C1 , NAXIS= 0, ORDER= 1
     ------------------------------------------

     DIMENSIONS OF THE SYMMETRY SUBSPACES ARE
 A   =  133

 ..... DONE SETTING UP THE RUN .....
 STEP CPU TIME =     0.06 TOTAL CPU TIME =        0.1 (    0.0 MIN)
 TOTAL WALL CLOCK TIME=        0.2 SECONDS, CPU UTILIZATION IS  38.10%


          -----------------------------
          STATIONARY POINT LOCATION RUN
          -----------------------------

 OBTAINING INITIAL HESSIAN, HESS=GUESS   
 DIAGONAL GUESS HESSIAN IN INTERNAL COORDS IS
     1  0.3468     2  0.4681     3  0.4743     4  0.4722     5  0.4787
     6  0.3487     7  0.4790     8  0.3481     9  0.3483    10  0.3433
    11  0.3897    12  0.3447    13  0.3444    14  0.4007    15  0.4715
    16  0.3840    17  0.5428    18  0.5374    19  0.3459    20  0.4258
    21  0.3892    22  0.2323    23  0.2685    24  0.2609    25  0.2673
    26  0.2543    27  0.2689    28  0.2677    29  0.2326    30  0.2676
    31  0.2322    32  0.2326    33  0.2326    34  0.2327    35  0.2683
    36  0.2478    37  0.2598    38  0.2613    39  0.2543    40  0.2317
    41  0.2521    42  0.2424    43  0.2612    44  0.2322    45  0.2583
    46  0.2545    47  0.2183    48  0.2257    49  0.2258    50  0.2256
    51  0.2031    52  0.2030    53  0.2031    54  0.2500    55  0.2500
    56  0.2500    57  0.2500    58  0.2500    59  0.2500    60  0.2500
    61  0.2500    62  0.2500    63  0.2500    64  0.2500    65  0.2500
    66  0.2500    67  0.2500    68  0.2500    69  0.2500    70  0.2500
    71  0.2500    72  0.2500    73  0.2500    74  0.2500    75  0.2500
    76  0.2500    77  0.2500    78  0.2500    79  0.2500    80  0.2500
    81  0.2500    82  0.2500    83  0.2500    84  0.2500    85  0.2500
    86  0.2500    87  0.2500    88  0.2500    89  0.2500    90  0.2500
    91  0.2500    92  0.2500    93  0.2500
 TRANSFORMING HESSIAN TO SYMMETRY COORDINATES

          PARAMETERS CONTROLLING GEOMETRY SEARCH ARE
          METHOD =QA                  UPHESS =BFGS    
          NNEG   =         0          NFRZ   =         0
          NSTEP  =       500          IFOLOW =         1
          HESS   =GUESS               RESTAR =         F
          IHREP  =         0          HSSEND =         F
          NPRT   =         0          NPUN   =         0
          OPTTOL = 1.000E-04          RMIN   = 1.500E-03
          RMAX   = 1.000E-01          RLIM   = 7.000E-02
          DXMAX  = 3.000E-01          PURIFY =         F
          MOVIE  =         F          TRUPD  =         T
          TRMAX  = 5.000E-01          TRMIN  = 5.000E-02
          ITBMAT =         5          STPT   =         F
          STSTEP = 1.000E-02          PROJCT=          T

 BEGINNING GEOMETRY SEARCH POINT NSERCH=   0 ...

 COORDINATES OF ALL ATOMS ARE (ANGS)
   ATOM   CHARGE       X              Y              Z
 ------------------------------------------------------------
 CARBON      6.0   2.0563900000  -0.1654300000   0.3972700000
 CARBON      6.0   0.6889000000   2.0285400000  -0.6481600000
 CARBON      6.0   2.7407100000   1.0232700000   0.1253300000
 CARBON      6.0   2.0573400000   2.1178200000  -0.4001600000
 CARBON      6.0  -3.5939600000   1.0320900000   0.0458900000
 CARBON      6.0   0.6773800000  -0.2750700000   0.1509700000
 CARBON      6.0   0.0027400000   0.8423400000  -0.3588700000
 OXYGEN      8.0   0.6329300000  -2.5452600000   0.9336000000
 OXYGEN      8.0  -1.7645200000   1.4325200000   1.5657100000
 OXYGEN      8.0  -1.2489400000  -1.6841100000   0.1297500000
 CARBON      6.0   0.0527800000  -1.5888100000   0.4495800000
 CARBON      6.0  -2.1519900000   1.1284100000   0.4451300000
 OXYGEN      8.0  -1.3616700000   0.8283200000  -0.6582500000
 HYDROGEN    1.0  -1.4765200000  -2.6011100000   0.3923200000
 HYDROGEN    1.0   2.6094800000  -1.0117300000   0.8028400000
 HYDROGEN    1.0   0.1570800000   2.8826600000  -1.0582300000
 HYDROGEN    1.0   3.8077700000   1.0912600000   0.3236400000
 HYDROGEN    1.0   2.5904400000   3.0408100000  -0.6140500000
 HYDROGEN    1.0  -3.8164000000   0.0204900000  -0.3028700000
 HYDROGEN    1.0  -4.2248000000   1.2459100000   0.9144000000
 HYDROGEN    1.0  -3.8129600000   1.7657600000  -0.7333200000


                     --------------------
                     INTERNAL COORDINATES
                     --------------------

                 - - ATOMS - -         COORDINATE      COORDINATE
 NO.   TYPE    I  J  K  L  M  N        (BOHR,RAD)       (ANG,DEG)
 ----------------------------------------------------------------
   1 STRETCH   1 15                     2.0585174       1.0893206
   2 STRETCH   1  6                     2.6552857       1.4051168
   3 STRETCH   1  3                     2.6424106       1.3983036
   4 STRETCH   2  7                     2.6466789       1.4005623
   5 STRETCH   2  4                     2.6335099       1.3935935
   6 STRETCH   2 16                     2.0532122       1.0865132
   7 STRETCH   3  4                     2.6328800       1.3932602
   8 STRETCH   3 17                     2.0549991       1.0874588
   9 STRETCH   4 18                     2.0543808       1.0871316
  10 STRETCH   5 20                     2.0683547       1.0945263
  11 STRETCH   5 12                     2.8332959       1.4993157
  12 STRETCH   5 21                     2.0643913       1.0924289
  13 STRETCH   5 19                     2.0652964       1.0929079
  14 STRETCH   6 11                     2.8062309       1.4849936
  15 STRETCH   6  7                     2.6480996       1.4013140
  16 STRETCH   7 13                     2.6398326       1.3969394
  17 STRETCH   8 11                     2.3033318       1.2188708
  18 STRETCH   9 12                     2.3131322       1.2240570
  19 STRETCH  10 14                     1.8531118       0.9806246
  20 STRETCH  10 11                     2.5394488       1.3438185
  21 STRETCH  12 13                     2.6267240       1.3900026
  22 BEND      1  3 17                  2.0919691     119.8610017
  23 BEND      1  3  4                  2.0957287     120.0764109
  24 BEND      1  6 11                  2.0337311     116.5242061
  25 BEND      1  6  7                  2.0646736     118.2970814
  26 BEND      2  7 13                  2.0294516     116.2790109
  27 BEND      2  4  3                  2.0925713     119.8955066
  28 BEND      2  7  6                  2.1113874     120.9735895
  29 BEND      2  4 18                  2.0954361     120.0596443
  30 BEND      3  1  6                  2.1089402     120.8333738
  31 BEND      3  1 15                  2.0764424     118.9713845
  32 BEND      3  4 18                  2.0951749     120.0446779
  33 BEND      4  3 17                  2.0954866     120.0625393
  34 BEND      4  2 16                  2.0914436     119.8308917
  35 BEND      4  2  7                  2.0927521     119.9058647
  36 BEND      5 12 13                  1.8981990     108.7587929
  37 BEND      5 12  9                  2.1702244     124.3446966
  38 BEND      6 11  8                  2.1820097     125.0199440
  39 BEND      6  7 13                  2.1414629     122.6967836
  40 BEND      6  1 15                  2.0978000     120.1950844
  41 BEND      6 11 10                  2.0067905     114.9806263
  42 BEND      7 13 12                  1.9638901     112.5226161
  43 BEND      7  6 11                  2.1847565     125.1773258
  44 BEND      7  2 16                  2.0989601     120.2615522
  45 BEND      8 11 10                  2.0943082     119.9950202
  46 BEND      9 12 13                  2.2147348     126.8949581
  47 BEND     11 10 14                  1.8001987     103.1437902
  48 BEND     12  5 19                  1.9179075     109.8880032
  49 BEND     12  5 21                  1.9172793     109.8520119
  50 BEND     12  5 20                  1.9075970     109.2972554
  51 BEND     19  5 21                  1.9317990     110.6839321
  52 BEND     19  5 20                  1.8930765     108.4652939
  53 BEND     20  5 21                  1.8957340     108.6175586
  54 TORSION   1  6  7 13               3.1223517     178.8975728
  55 TORSION   1  3  4 18              -3.1385395    -179.8250669
  56 TORSION   1  6  7  2               0.0276156       1.5822586
  57 TORSION   1  3  4  2               0.0056790       0.3253817
  58 TORSION   1  6 11 10              -3.0766420    -176.2786037
  59 TORSION   1  6 11  8               0.0515500       2.9535980
  60 TORSION   2  7  6 11              -3.1062198    -177.9732863
  61 TORSION   2  4  3 17              -3.1373077    -179.7544903
  62 TORSION   2  7 13 12              -1.6797643     -96.2434067
  63 TORSION   3  1  6  7              -0.0132193      -0.7574079
  64 TORSION   3  4  2 16              -3.1412941    -179.9828964
  65 TORSION   3  4  2  7               0.0085333       0.4889248
  66 TORSION   3  1  6 11               3.1212870     178.8365718
  67 TORSION   4  2  7 13              -3.1232153    -178.9470544
  68 TORSION   4  3  1 15               3.1358479     179.6708475
  69 TORSION   4  2  7  6              -0.0255975      -1.4666309
  70 TORSION   4  3  1  6              -0.0032312      -0.1851361
  71 TORSION   5 12 13  7              -3.0995024    -177.5884063
  72 TORSION   6 11 10 14               3.1392003     179.8629283
  73 TORSION   6  7 13 12               1.5066327      86.3236967
  74 TORSION   6  7  2 16               3.1242658     179.0072461
  75 TORSION   6  1  3 17               3.1397526     179.8945741
  76 TORSION   7  6 11 10               0.0573169       3.2840171
  77 TORSION   7  6 11  8              -3.0976764    -177.4837812
  78 TORSION   7  2  4 18              -3.1304331    -179.3606039
  79 TORSION   7  6  1 15               3.1309176     179.3883653
  80 TORSION   7 13 12  9               0.0497767       2.8519944
  81 TORSION   8 11 10 14               0.0102792       0.5889540
  82 TORSION   9 12  5 19              -2.1039315    -120.5463956
  83 TORSION   9 12  5 21               2.0499060     117.4509600
  84 TORSION   9 12  5 20              -0.0284468      -1.6298835
  85 TORSION  11  6  1 15              -0.0177614      -1.0176550
  86 TORSION  11  6  7 13              -0.0114838      -0.6579722
  87 TORSION  13 12  5 19               1.0451063      59.8801789
  88 TORSION  13 12  5 21              -1.0842416     -62.1224656
  89 TORSION  13 12  5 20               3.1205909     178.7966910
  90 TORSION  13  7  2 16               0.0266481       1.5268227
  91 TORSION  15  1  3 17              -0.0043536      -0.2494423
  92 TORSION  16  2  4 18               0.0029247       0.1675749
  93 TORSION  17  3  4 18               0.0016591       0.0950611

          ********************
          1 ELECTRON INTEGRALS
          ********************
 ...... END OF ONE-ELECTRON INTEGRALS ......
 STEP CPU TIME =     0.03 TOTAL CPU TIME =        0.1 (    0.0 MIN)
 TOTAL WALL CLOCK TIME=        0.3 SECONDS, CPU UTILIZATION IS  31.43%

          -------------
          GUESS OPTIONS
          -------------
          GUESS =HUCKEL            NORB  =       0          NORDER=       0
          MIX   =       F          PRTMO =       F          PUNMO =       F
          TOLZ  = 1.0E-08          TOLE  = 1.0E-05
          SYMDEN=       F          PURIFY=       F

 INITIAL GUESS ORBITALS GENERATED BY HUCKEL   ROUTINE.
 HUCKEL GUESS REQUIRES    165193 WORDS.

 SYMMETRIES FOR INITIAL GUESS ORBITALS FOLLOW.   BOTH SET(S).
    47 ORBITALS ARE OCCUPIED (   13 CORE ORBITALS).
    14=A       15=A       16=A       17=A       18=A       19=A       20=A   
    21=A       22=A       23=A       24=A       25=A       26=A       27=A   
    28=A       29=A       30=A       31=A       32=A       33=A       34=A   
    35=A       36=A       37=A       38=A       39=A       40=A       41=A   
    42=A       43=A       44=A       45=A       46=A       47=A       48=A   
    49=A       50=A       51=A       52=A       53=A       54=A       55=A   
    56=A       57=A   
 ...... END OF INITIAL ORBITAL SELECTION ......
 STEP CPU TIME =     0.06 TOTAL CPU TIME =        0.2 (    0.0 MIN)
 TOTAL WALL CLOCK TIME=        0.4 SECONDS, CPU UTILIZATION IS  41.46%

                    ----------------------
                    AO INTEGRAL TECHNOLOGY
                    ----------------------
     S,P,L SHELL ROTATED AXIS INTEGRALS, REPROGRAMMED BY
        KAZUYA ISHIMURA (IMS) AND JOSE SIERRA (SYNSTAR).
     S,P,D,L SHELL ROTATED AXIS INTEGRALS PROGRAMMED BY
        KAZUYA ISHIMURA (INSTITUTE FOR MOLECULAR SCIENCE).
     S,P,D,F,G SHELL TO TOTAL QUARTET ANGULAR MOMENTUM SUM 5,
        ERIC PROGRAM BY GRAHAM FLETCHER (ELORET AND NASA ADVANCED
        SUPERCOMPUTING DIVISION, AMES RESEARCH CENTER).
     S,P,D,F,G,L SHELL GENERAL RYS QUADRATURE PROGRAMMED BY
        MICHEL DUPUIS (PACIFIC NORTHWEST NATIONAL LABORATORY).

          --------------------
          2 ELECTRON INTEGRALS
          --------------------

 DIRECT SCF METHOD SKIPS INTEGRAL STORAGE ON DISK.
 DIRECT TRANSFORMATION SKIPS AO INTEGRAL STORAGE ON DISK.
  ...... END OF TWO-ELECTRON INTEGRALS .....
 STEP CPU TIME =     0.02 TOTAL CPU TIME =        0.2 (    0.0 MIN)
 TOTAL WALL CLOCK TIME=        0.4 SECONDS, CPU UTILIZATION IS  44.19%

          --------------------------
          R-B3LYPV1R SCF CALCULATION
          --------------------------

     NUCLEAR ENERGY =       782.6612221314
     MAXIT =  200     NPUNCH=    2
     EXTRAP=T  DAMP=T  SHIFT=T  RSTRCT=F  DIIS=T  DEM=F  SOSCF=F
         DENSITY MATRIX CONVERGENCE THRESHOLD=  2.00E-05
     COARSE -> FINE DFT GRID SWITCH THRESHOLD=  3.00E-04 (SWITCH IN $DFT)
                   HF -> DFT SWITCH THRESHOLD=  5.00E-03 (SWOFF IN $DFT)
     MEMORY REQUIRED FOR RHF ITERS=    884233 WORDS.

 DIRECT SCF CALCULATION, SCHWRZ=T   FDIFF=T,  DIRTHR=  0.00E+00 NITDIR=10
 SCHWARZ INEQUALITY OVERHEAD:      8538 INTEGRALS, T=        0.00

 DFT CODE IS SWITCHING FROM THE FINE GRID NRAD= 96,  NLEB=  302
                      TO THE COARSE GRID NRAD0= 24, NLEB0=  110

     EXCHANGE FUNCTIONAL   =B88&HFX   
     CORRELATION FUNCTIONAL=LYP88VWN1R
     DFT THRESHOLD         =.657E-08
     GRID CHANGE THRESHOLD =.300E-03
 FOR AN EULER-MACLAURIN QUADRATURE USING  96 RADIAL POINTS:
 SMALLEST GAUSSIAN PRIMITIVE EXPONENT=        0.1612777588 OF TYPE -S-
 ON ATOM NUMBER  14 HAS RADIAL NORMALIZATION=  1.000000
  LARGEST GAUSSIAN PRIMITIVE EXPONENT=     5484.6716600000 OF TYPE -S-
 ON ATOM NUMBER   8 HAS RADIAL NORMALIZATION=  1.000000
 DFT IS SWITCHED OFF, PERFORMING PURE SCF UNTIL SWOFF THRESHOLD IS REACHED.

                                                                                                                   NONZERO     BLOCKS
 ITER EX DEM     TOTAL ENERGY        E CHANGE  DENSITY CHANGE    DIIS ERROR      VIR. SHIFT       DAMPING        INTEGRALS    SKIPPED
          * * *   INITIATING DIIS PROCEDURE   * * *
   1  0  0     -643.0646765459  -643.0646765459   0.519810212   0.434343275     0.000000000     1.000000000       26088925     592124
   2  1  0     -644.4022803278    -1.3376037819   0.229366745   0.203111530     0.000000000     1.000000000       26066739     601996
   3  2  0     -644.5401755916    -0.1378952638   0.110295372   0.142760327     0.000000000     1.000000000       25946043     625857
   4  3  0     -644.6586922820    -0.1185166904   0.016067458   0.015613324     0.000000000     1.000000000       25718259     649584
   5  4  0     -644.6608334120    -0.0021411300   0.005408289   0.005964815     0.000000000     1.000000000       25059797     682514
   6  5  0     -644.6611435155    -0.0003101035   0.002476560   0.002218070     0.000000000     1.000000000       24238184     716104
 CONVERGED TO SWOFF, SO DFT CALCULATION IS NOW SWITCHED ON.
          * * *   INITIATING DIIS PROCEDURE   * * *
   7  6  0     -648.4272718869    -3.7661283714   0.185038603   0.066890953       26092461     590959
   8  7  0     -648.4677428781    -0.0404709912   0.075262146   0.033323081       25968138     621423
   9  8  0     -648.4677321407     0.0000107374   0.052891089   0.043871521       25664872     650541
  10  9  0     -648.4827668456    -0.0150347049   0.015418433   0.022178833       25411183     668288
  11 10  0     -648.4844318631    -0.0016650175   0.005076527   0.005336275       24843445     692556
  12 11  0     -648.4845696326    -0.0001377695   0.000853042   0.000590703       23766550     732972
  13 12  0     -648.4845716602    -0.0000020276   0.000288449   0.000351435       22478749     767411
 DFT CODE IS SWITCHING BACK TO THE FINE GRID
          * * *   INITIATING DIIS PROCEDURE   * * *
  14 13  0     -648.4865866903    -0.0020150301   0.003458904   0.001642089       26102886     587047
  15 14  0     -648.4866317175    -0.0000450273   0.001910776   0.000856928       24202538     718072
  16 15  0     -648.4866277419     0.0000039756   0.000894572   0.001625337       22844121     762036
  17 16  0     -648.4866354530    -0.0000077111   0.000279298   0.000211958       22250118     778932
  18 17  0     -648.4866357844    -0.0000003314   0.000066114   0.000078210       20710190     819174
  19 18  0     -648.4866358173    -0.0000000329   0.000015261   0.000014080       19189665     853891
  20 19  0     -648.4866358198    -0.0000000025   0.000007967   0.000006165       17723950     885880

          -----------------
          DENSITY CONVERGED
          -----------------
     TIME TO FORM FOCK OPERATORS=     167.3 SECONDS (       8.4 SEC/ITER)
     FOCK TIME ON FIRST ITERATION=       2.9, LAST ITERATION=      17.0
     TIME TO SOLVE SCF EQUATIONS=       0.5 SECONDS (       0.0 SEC/ITER)

 FINAL R-B3LYPV1R ENERGY IS     -648.4866358198 AFTER  20 ITERATIONS
 DFT EXCHANGE + CORRELATION ENERGY =       -69.7213626281
 TOTAL ELECTRON NUMBER             =        94.0002453711

          ------------
          EIGENVECTORS
          ------------

                      1          2          3          4          5
                  -19.2081   -19.2045   -19.1541   -19.1505   -10.3395
                     A          A          A          A          A   
    1  C  1  S    0.000030   0.000006  -0.000006  -0.000030  -0.000049
    2  C  1  S    0.000089  -0.000119  -0.000059  -0.000144  -0.000286
    3  C  1  X    0.000297   0.000344   0.000024  -0.000186   0.000156
    4  C  1  Y   -0.000077   0.000339  -0.000042  -0.000139   0.000274
    5  C  1  Z    0.000079  -0.000048  -0.000001  -0.000008  -0.000059
    6  C  1  S   -0.007697  -0.006734   0.000175   0.007985  -0.000805
    7  C  1  X    0.002213   0.000993  -0.000028  -0.004284  -0.002025
    8  C  1  Y   -0.003387  -0.002114   0.000449   0.000957  -0.002945
    9  C  1  Z    0.001812   0.000891  -0.000012  -0.001091   0.000593
   10  C  2  S   -0.000066  -0.000015   0.000020  -0.000021  -0.000094
   11  C  2  S   -0.000583  -0.000136   0.000228  -0.000193  -0.000507
   12  C  2  X   -0.000036   0.000092  -0.000092  -0.000066  -0.000050
   13  C  2  Y   -0.000057   0.000056  -0.000008   0.000011   0.000040
   14  C  2  Z    0.000016  -0.000005   0.000068  -0.000021  -0.000022
   15  C  2  S    0.009313   0.002091  -0.000598   0.000630   0.004535
   16  C  2  X    0.005438  -0.001574   0.001013   0.000754   0.000832
   17  C  2  Y   -0.006063  -0.000841   0.000119  -0.000540  -0.002515
   18  C  2  Z    0.002910   0.000005  -0.000145   0.000350   0.001120
   19  C  3  S   -0.000041  -0.000044   0.000006   0.000015  -0.000076
   20  C  3  S   -0.000315  -0.000357   0.000036   0.000077  -0.000422
   21  C  3  X    0.000059   0.000019   0.000020   0.000013   0.000011
   22  C  3  Y   -0.000043  -0.000051   0.000002   0.000162   0.000027
   23  C  3  Z    0.000039   0.000026   0.000009  -0.000054  -0.000016
[...]
   12             0.138772   0.015311   0.089820   0.028258   0.171971
   13             0.240271   0.049827   0.333354   0.046210   0.013439
   14             0.001377   0.057745   0.000082   0.017407   0.018236
   15             0.002316   0.024670   0.055070   0.029905   0.069930
   16             0.003692   0.001782   0.055028   0.026858   0.060095
   17             0.109902   0.001804   0.000008   0.193153   0.000800
   18             0.039191   0.056798   0.107566   0.029905   0.074236
   19             0.000897   0.063278   0.149048   0.010714   0.068706
   20             0.000338   0.045009   0.000451   0.031998   0.000137
   21             0.042862   0.028510   0.085163   0.000495   0.059599

                     41         42         43         44         45

                  2.000000   2.000000   2.000000   2.000000   2.000000

    1             0.239955   0.014374   0.033215   0.015567   0.070684
    2             0.121035   0.033470   0.040001   0.003989   0.076029
    3             0.252556   0.003349   0.078633   0.016854   0.025419
    4             0.229213   0.019555   0.073780   0.008458   0.009233
    5             0.055849   0.001067   0.000761   0.040075   0.108842
    6             0.160024   0.031578   0.055482   0.083361   0.049518
    7             0.069484   0.021845   0.057341   0.022563   0.040797
    8             0.005808   0.644698   0.093303   1.102272   0.361941
    9             0.108702   0.056269   0.533950   0.354238   0.960954
   10             0.061541   0.886220   0.207358   0.185153   0.057749
   11             0.001690   0.061816   0.010725   0.064544   0.020696
   12             0.058854   0.003866   0.034417   0.028686   0.055658
   13             0.480937   0.210367   0.747651   0.049285   0.128204
   14             0.000539   0.000670   0.002311   0.009840   0.004815
   15             0.049933   0.003950   0.009283   0.004219   0.001235
   16             0.039733   0.002532   0.004984   0.003154   0.000248
   17             0.048731   0.000011   0.000028   0.000346   0.001012
   18             0.000143   0.003377   0.010223   0.000281   0.001061
   19             0.001475   0.000019   0.000828   0.003203   0.010839
   20             0.011225   0.000115   0.000618   0.000793   0.002259
   21             0.002572   0.000853   0.005107   0.003118   0.012807

                     46         47

                  2.000000   2.000000

    1             0.286573   0.222119
    2             0.317668   0.287752
    3             0.019118   0.506272
    4             0.488501   0.033605
    5             0.005025   0.011837
    6             0.545248   0.088617
    7             0.019090   0.408996
    8             0.240789   0.015492
    9             0.056926   0.135785
   10             0.003659   0.002746
   11            -0.001606   0.000594
   12             0.003345   0.023040
   13             0.013569   0.261351
   14             0.000286   0.000078
   15             0.000101   0.000059
   16             0.000072  -0.000008
   17             0.000093   0.000002
   18             0.000165   0.000184
   19             0.000872   0.001088
   20             0.000147   0.000042
   21             0.000358   0.000348

               ----- POPULATIONS IN EACH AO -----
                             MULLIKEN      LOWDIN
              1  C  1  S      1.99686     1.98803
              2  C  1  S      0.71182     0.55999
              3  C  1  X      0.75353     0.68892
              4  C  1  Y      0.75934     0.68601
              5  C  1  Z      0.57517     0.52441
              6  C  1  S      0.52012     0.39632
              7  C  1  X      0.21004     0.37472
              8  C  1  Y      0.25500     0.40716
              9  C  1  Z      0.37733     0.44477
             10  C  2  S      1.99682     1.98792
             11  C  2  S      0.70798     0.55917
             12  C  2  X      0.76922     0.70573
             13  C  2  Y      0.73257     0.66258
             14  C  2  Z      0.60636     0.55706
             15  C  2  S      0.49467     0.39807
             16  C  2  X      0.15984     0.37542
             17  C  2  Y      0.23769     0.40704
             18  C  2  Z      0.41007     0.47079
             19  C  3  S      1.99681     1.98804
             20  C  3  S      0.70605     0.55384
             21  C  3  X      0.76144     0.67949
             22  C  3  Y      0.74035     0.68384
             23  C  3  Z      0.59696     0.54813
             24  C  3  S      0.49491     0.39818
             25  C  3  X      0.24603     0.41721
             26  C  3  Y      0.18027     0.38249
             27  C  3  Z      0.39400     0.46489
             28  C  4  S      1.99683     1.98812
             29  C  4  S      0.71110     0.55820
             30  C  4  X      0.76301     0.69679
             31  C  4  Y      0.74318     0.66940
             32  C  4  Z      0.57806     0.52768
             33  C  4  S      0.50112     0.39926
             34  C  4  X      0.19084     0.38395
             35  C  4  Y      0.25006     0.41096
             36  C  4  Z      0.38441     0.45058
             37  C  5  S      1.99685     1.98782
             38  C  5  S      0.67341     0.56570
             39  C  5  X      0.69098     0.63912
             40  C  5  Y      0.73561     0.65992
             41  C  5  Z      0.74334     0.66811
             42  C  5  S      0.67020     0.44167
             43  C  5  X      0.24553     0.42201
             44  C  5  Y      0.36879     0.48865
             45  C  5  Z      0.33380     0.46965
             46  C  6  S      1.99680     1.98659
             47  C  6  S      0.70417     0.55019
             48  C  6  X      0.76598     0.70145
             49  C  6  Y      0.72006     0.66153
             50  C  6  Z      0.63970     0.58761
             51  C  6  S      0.43681     0.37785
             52  C  6  X      0.10667     0.37494
             53  C  6  Y      0.12107     0.37914
             54  C  6  Z      0.39126     0.46644
             55  C  7  S      1.99685     1.98610
             56  C  7  S      0.71562     0.54995
             57  C  7  X      0.62607     0.56545
             58  C  7  Y      0.78385     0.71269
             59  C  7  Z      0.63467     0.57411
             60  C  7  S      0.42757     0.36218
             61  C  7  X     -0.00282     0.29742
             62  C  7  Y      0.21750     0.37855
             63  C  7  Z      0.34137     0.42755
             64  O  8  S      1.99751     1.99450
             65  O  8  S      0.92463     0.89650
             66  O  8  X      1.05420     1.01407
             67  O  8  Y      0.94675     0.90444
             68  O  8  Z      0.86073     0.82000
             69  O  8  S      1.02273     0.74995
             70  O  8  X      0.58016     0.69406
             71  O  8  Y      0.48553     0.61389
             72  O  8  Z      0.53684     0.60556
             73  O  9  S      1.99748     1.99455
             74  O  9  S      0.92686     0.89665
             75  O  9  X      1.10796     1.06868
             76  O  9  Y      0.83683     0.79416
             77  O  9  Z      0.91867     0.87656
             78  O  9  S      1.03050     0.74454
             79  O  9  X      0.61341     0.71098
             80  O  9  Y      0.55169     0.60161
             81  O  9  Z      0.41547     0.57666
             82  O 10  S      1.99733     1.99357
             83  O 10  S      0.90696     0.88665
             84  O 10  X      0.88684     0.84244
             85  O 10  Y      0.96390     0.90779
             86  O 10  Z      1.07127     1.03795
             87  O 10  S      1.01467     0.71095
             88  O 10  X      0.48848     0.58250
             89  O 10  Y      0.53595     0.62937
             90  O 10  Z      0.70308     0.74135
             91  C 11  S      1.99638     1.98465
             92  C 11  S      0.75296     0.56209
             93  C 11  X      0.66082     0.59590
             94  C 11  Y      0.76143     0.68801
             95  C 11  Z      0.57140     0.51036
             96  C 11  S      0.22438     0.35396
             97  C 11  X      0.10184     0.32369
             98  C 11  Y      0.21950     0.35488
             99  C 11  Z      0.27470     0.36811
            100  C 12  S      1.99649     1.98491
            101  C 12  S      0.75504     0.56998
            102  C 12  X      0.72107     0.65277
            103  C 12  Y      0.52046     0.46454
            104  C 12  Z      0.72083     0.65412
            105  C 12  S      0.26308     0.36374
            106  C 12  X      0.18350     0.34625
            107  C 12  Y      0.29345     0.35602
            108  C 12  Z      0.01172     0.32992
            109  O 13  S      1.99743     1.99338
            110  O 13  S      0.89860     0.87694
            111  O 13  X      0.82539     0.77514
            112  O 13  Y      1.09791     1.06434
            113  O 13  Z      0.98960     0.95399
            114  O 13  S      1.03963     0.67113
            115  O 13  X      0.43580     0.51806
            116  O 13  Y      0.67500     0.71524
            117  O 13  Z      0.59324     0.66733
            118  H 14  S      0.49049     0.45669
            119  H 14  S      0.11805     0.23529
            120  H 15  S      0.53507     0.50372
            121  H 15  S      0.28501     0.35184
            122  H 16  S      0.53855     0.50524
            123  H 16  S      0.31281     0.36034
            124  H 17  S      0.54161     0.51077
            125  H 17  S      0.31701     0.36363
            126  H 18  S      0.54208     0.51109
            127  H 18  S      0.31417     0.36284
            128  H 19  S      0.52492     0.49824
            129  H 19  S      0.28469     0.35314
            130  H 20  S      0.53082     0.50537
            131  H 20  S      0.29451     0.35820
            132  H 21  S      0.52709     0.50010
            133  H 21  S      0.29346     0.35660

          ----- MULLIKEN ATOMIC OVERLAP POPULATIONS -----
          (OFF-DIAGONAL ELEMENTS NEED TO BE MULTIPLIED BY 2)

             1           2           3           4           5

    1    5.0770163
    2   -0.0466133   5.0110155
    3    0.4542719  -0.0459571   4.9602827
    4   -0.0358525   0.4916951   0.5124425   4.9197758
    5    0.0000083  -0.0001546  -0.0000004   0.0000084   5.3416956
    6    0.4452311  -0.0549989  -0.0311569  -0.0332851   0.0001429
    7   -0.0238478   0.4941464  -0.0426071  -0.0272258   0.0015441
    8    0.0058393  -0.0000210   0.0011084  -0.0000245  -0.0000014
    9   -0.0001540  -0.0000377  -0.0000015   0.0000266  -0.0918153
   10    0.0034051   0.0002593  -0.0000511  -0.0000109  -0.0026582
   11   -0.0548227   0.0082072   0.0140585  -0.0011499  -0.0003892
   12    0.0001756  -0.0039976   0.0000074   0.0001144   0.2696366
   13    0.0041523  -0.0652485  -0.0000874   0.0043433  -0.1189504
   14   -0.0001545   0.0000005  -0.0000003   0.0000007   0.0000047
   15    0.3559386   0.0006662  -0.0328767   0.0039407  -0.0000001
   16    0.0001878   0.3508046   0.0043896  -0.0333143  -0.0001355
   17   -0.0300620   0.0039968   0.3570961  -0.0349007   0.0000000
   18    0.0044762  -0.0285863  -0.0340855   0.3520365  -0.0000001
   19   -0.0000006  -0.0000134   0.0000000  -0.0000002   0.3529537
   20   -0.0000001   0.0000036   0.0000000  -0.0000001   0.3578072
   21   -0.0000004   0.0000431   0.0000000  -0.0000001   0.3488024

             6           7           8           9          10

    6    5.5075964
    7    0.3534286   4.8367699
    8   -0.1357973   0.0019895   8.0935555
    9   -0.0007034   0.0068481  -0.0000034   8.0527918
   10   -0.1251987   0.0040683  -0.1208561  -0.0029260   8.4178187
   11    0.0457514  -0.0359775   0.5465605   0.0023286   0.1638923
   12   -0.0094707  -0.0074573  -0.0000168   0.5251052   0.0039629
   13   -0.0685645   0.2030505  -0.0000069  -0.0981199  -0.0050606
   14    0.0136899  -0.0005549   0.0058453   0.0000448   0.2280550
   15   -0.0350775   0.0035277   0.0109174  -0.0000003   0.0004482
   16    0.0063867  -0.0319716   0.0000003  -0.0000559   0.0000038
   17    0.0039720   0.0008817   0.0000006   0.0000000   0.0000002
   18    0.0005789   0.0040587   0.0000000   0.0000000   0.0000000
   19    0.0000157   0.0000255   0.0000023   0.0011758   0.0032167
   20    0.0000042  -0.0000773   0.0000000   0.0027662   0.0000313
   21   -0.0000241   0.0000668   0.0000000   0.0016060   0.0000654

            11          12          13          14          15

   11    4.9105020
   12   -0.0001173   4.6574532
   13   -0.0138418   0.1001590   8.6021351
   14   -0.0147025   0.0000647   0.0003261   0.3759743
   15   -0.0067850  -0.0000071  -0.0000373   0.0000002   0.5231255
   16   -0.0000636  -0.0000649  -0.0013970  -0.0000002   0.0000098
   17   -0.0001642   0.0000000   0.0000014   0.0000000  -0.0035595
   18    0.0000006  -0.0000035  -0.0000639   0.0000000  -0.0001521
   19    0.0001075  -0.0228441   0.0023064  -0.0000548   0.0000000
   20    0.0000060  -0.0278029   0.0038456   0.0000077   0.0000000
   21    0.0000185  -0.0192697   0.0036625  -0.0000009   0.0000000

            16          17          18          19          20

   16    0.5609457
   17   -0.0001482   0.5653778
   18   -0.0042458  -0.0038700   0.5661093
   19    0.0000024   0.0000000   0.0000000   0.5171280
   20    0.0000017   0.0000000   0.0000000  -0.0223801   0.5348274
   21    0.0000298   0.0000000   0.0000000  -0.0220345  -0.0237085

            21

   21    0.5312945

          TOTAL MULLIKEN AND LOWDIN ATOMIC POPULATIONS
       ATOM         MULL.POP.    CHARGE          LOW.POP.     CHARGE
    1 CARBON        6.159194   -0.159194         6.070330   -0.070330
    2 CARBON        6.115210   -0.115210         6.123784   -0.123784
    3 CARBON        6.116833   -0.116833         6.116098   -0.116098
    4 CARBON        6.118620   -0.118620         6.084938   -0.084938
    5 CARBON        6.458499   -0.458499         6.342653   -0.342653
    6 CARBON        5.882521    0.117479         6.085744   -0.085744
    7 CARBON        5.740686    0.259314         5.853990    0.146010
    8 OXYGEN        8.409092   -0.409092         8.292970   -0.292970
    9 OXYGEN        8.398876   -0.398876         8.264383   -0.264383
   10 OXYGEN        8.568466   -0.568466         8.332554   -0.332554
   11 CARBON        5.563419    0.436581         5.741646    0.258354
   12 CARBON        5.465627    0.534373         5.722249    0.277751
   13 OXYGEN        8.552604   -0.552604         8.235553   -0.235553
   14 HYDROGEN      0.608546    0.391454         0.691983    0.308017
   15 HYDROGEN      0.820078    0.179922         0.855566    0.144434
   16 HYDROGEN      0.851365    0.148635         0.865589    0.134411
   17 HYDROGEN      0.858622    0.141378         0.874396    0.125604
   18 HYDROGEN      0.856253    0.143747         0.873929    0.126071
   19 HYDROGEN      0.809606    0.190394         0.851376    0.148624
   20 HYDROGEN      0.825332    0.174668         0.863565    0.136435
   21 HYDROGEN      0.820551    0.179449         0.856703    0.143297

          -------------------------------
          BOND ORDER AND VALENCE ANALYSIS     BOND ORDER THRESHOLD=0.050
          -------------------------------

                   BOND                       BOND                       BOND
  ATOM PAIR DIST  ORDER      ATOM PAIR DIST  ORDER      ATOM PAIR DIST  ORDER
    1   2  2.785  0.093        1   3  1.392  1.441        1   6  1.410  1.368
    1  15  1.083  0.910        2   4  1.396  1.430        2   7  1.396  1.418
    2  16  1.083  0.922        3   4  1.401  1.417        3   7  2.797  0.088
    3  17  1.084  0.932        4   6  2.821  0.091        4  18  1.085  0.929
    5  12  1.497  0.946        5  19  1.094  0.927        5  20  1.090  0.942
    5  21  1.094  0.929        6   7  1.410  1.312        6  11  1.479  0.940
    7  13  1.409  0.825        8  11  1.239  1.861        9  12  1.225  1.921
    9  13  2.312  0.062       10  11  1.381  0.967       10  14  0.982  0.774
   12  13  1.407  0.864

                       TOTAL       BONDED        FREE
      ATOM            VALENCE     VALENCE     VALENCE
    1 CARBON            3.892       3.892       0.000
    2 CARBON            3.863       3.863       0.000
    3 CARBON            3.863       3.863       0.000
    4 CARBON            3.884       3.884       0.000
    5 CARBON            3.728       3.728       0.000
    6 CARBON            3.688       3.688       0.000
    7 CARBON            3.769       3.769       0.000
    8 OXYGEN            2.041       2.041       0.000
    9 OXYGEN            2.046       2.046       0.000
   10 OXYGEN            1.814       1.814       0.000
   11 CARBON            3.849       3.849       0.000
   12 CARBON            3.787       3.787       0.000
   13 OXYGEN            1.776       1.776       0.000
   14 HYDROGEN          0.832       0.832       0.000
   15 HYDROGEN          0.943       0.943       0.000
   16 HYDROGEN          0.943       0.943       0.000
   17 HYDROGEN          0.942       0.942       0.000
   18 HYDROGEN          0.941       0.941       0.000
   19 HYDROGEN          0.932       0.932       0.000
   20 HYDROGEN          0.936       0.936       0.000
   21 HYDROGEN          0.932       0.932       0.000

          ---------------------
          ELECTROSTATIC MOMENTS
          ---------------------

 POINT   1           X           Y           Z (BOHR)    CHARGE
                -0.353623    0.511322    0.354023        0.00 (A.U.)
         DX          DY          DZ         /D/  (DEBYE)
    -0.598943    1.375936   -2.361028    2.797568
 ...... END OF PROPERTY EVALUATION ......
 STEP CPU TIME =     0.09 TOTAL CPU TIME =     9198.1 (  153.3 MIN)
 TOTAL WALL CLOCK TIME=     9223.5 SECONDS, CPU UTILIZATION IS  99.72%
  $VIB   
          IVIB=   0 IATOM=   0 ICOORD=   0 E=     -648.4956883277
 -5.005940448E-06 1.922966033E-05 5.292476220E-05 2.689833989E-05 3.982699827E-05
  5.178111801E-05 1.975327644E-05-9.829354308E-05-5.695827285E-06-7.817647989E-05
  5.719467379E-05-3.443273650E-05-1.365797948E-05 1.877126457E-05-2.267467019E-05
 -2.978974701E-05 3.956594198E-05-3.123782270E-05 4.551620154E-05-6.456536742E-05
  7.475926719E-06-1.362902515E-05 2.391433725E-05 4.101981096E-05 1.788955800E-07
  3.163265748E-05-9.729438242E-06-1.517669032E-05 1.776029092E-05 5.361782277E-05
  2.345268649E-05-4.360239678E-05-7.147926099E-05 3.394680746E-06-6.318707874E-05
  3.089277302E-05-1.827771747E-05 3.548984476E-05-1.792932937E-05 4.697404424E-06
 -1.124093123E-05-2.723091621E-05 1.383773179E-05 5.590841572E-06-1.219695589E-05
 -5.643567342E-06-1.591427891E-05-2.435925314E-05 1.961351848E-06 3.042619518E-05
 -1.663111955E-05 3.479188163E-05-1.676900172E-05 2.234207289E-05 3.821470079E-08
 -2.246232876E-06 5.545843244E-06 1.346016112E-06-7.904591133E-06 1.617951342E-06
  3.490465907E-06 4.320715800E-06 6.379248942E-06
 -5.989434675E-01 1.375936308E+00-2.361028016E+00
 ......END OF GEOMETRY SEARCH......
 STEP CPU TIME =     0.00 TOTAL CPU TIME =     9198.1 (  153.3 MIN)
 TOTAL WALL CLOCK TIME=     9223.5 SECONDS, CPU UTILIZATION IS  99.72%
                884944  WORDS OF DYNAMIC MEMORY USED
 EXECUTION OF GAMESS TERMINATED NORMALLY Thu Mar 20 22:58:25 2014
 DDI: 263624 bytes (0.3 MB / 0 MWords) used by master data server.

 ----------------------------------------
 CPU timing information for all processes
 ========================================
 0: 9195.295 + 2.870 = 9198.165
 1: 2856.461 + 6345.755 = 9202.217
 ----------------------------------------
-rw------- 1 erb74 dlambrecht 1.9K Mar 20 20:24 /scratch/1830479.clusman0.localdomain/b3lyp.F05
-rw------- 1 erb74 dlambrecht 3.1M Mar 20 22:58 /scratch/1830479.clusman0.localdomain/b3lyp.F10
-rw------- 1 erb74 dlambrecht 5.2M Mar 20 22:55 /scratch/1830479.clusman0.localdomain/b3lyp.F22
-rw------- 1 erb74 dlambrecht 1.9K Mar 20 20:24 /scratch/1830479.clusman0.localdomain/b3lyp.inp
