                  Welcome to Q-Chem
     A Quantum Leap Into The Future Of Chemistry


 Q-Chem 4.3, Q-Chem, Inc., Pleasanton, CA (2015)

 Y. Shao,  Z. Gan,  E. Epifanovsky,  A. T. B. Gilbert,  M. Wormit,  
 J. Kussmann,  A. W. Lange,  A. Behn,  J. Deng,  X. Feng,  D. Ghosh,  
 M. Goldey,  P. R. Horn,  L. D. Jacobson,  I. Kaliman,  R. Z. Khaliullin,  
 T. Kus,  A. Landau,  J. Liu,  E. I. Proynov,  Y. M. Rhee,  R. M. Richard,  
 M. A. Rohrdanz,  R. P. Steele,  E. J. Sundstrom,  H. L. Woodcock III,  
 P. M. Zimmerman,  D. Zuev,  B. Albrecht,  E. Alguire,  B. Austin,  
 S. A. Baeppler,  G. J. O. Beran,  Y. A. Bernard,  E. Berquist,  
 K. Brandhorst,  K. B. Bravaya,  S. T. Brown,  D. Casanova,  C.-M. Chang,  
 Y. Chen,  S. H. Chien,  K. D. Closser,  D. L. Crittenden,  M. Diedenhofen,  
 R. A. DiStasio Jr.,  H. Do,  A. D. Dutoi,  R. G. Edgar,  P.-T. Fang,  
 S. Fatehi,  Q. Feng,  L. Fusti-Molnar,  A. Ghysels,  
 A. Golubeva-Zadorozhnaya,  J. Gomes,  A. Gunina,  M. W. D. Hanson-Heine,  
 P. H. P. Harbach,  A. W. Hauser,  E. G. Hohenstein,  Z. C. Holden,  K. Hui,  
 T.-C. Jagau,  H. Ji,  B. Kaduk,  K. Khistyaev,  Jaehoon Kim,  Jihan Kim,  
 R. A. King,  P. Klunzinger,  D. Kosenkov,  T. Kowalczyk,  C. M. Krauter,  
 K. U. Lao,  A. Laurent,  K. V. Lawler,  S. Lehtola,  S. V. Levchenko,  
 C. Y. Lin,  Y.-S. Lin,  F. Liu,  E. Livshits,  R. C. Lochan,  A. Luenser,  
 P. Manohar,  S. F. Manzer,  S.-P. Mao,  N. Mardirossian,  A. V. Marenich,  
 L. A. Martinez-Martinez,  S. A. Maurer,  N. J. Mayhall,  K. Nanda,  
 C. M. Oana,  R. Olivares-Amaya,  D. P. O'Neill,  J. A. Parkhill,  
 T. M. Perrine,  R. Peverati,  P. A. Pieniazek,  F. Plasser,  A. Prociuk,  
 D. R. Rehn,  E. Rosta,  N. J. Russ,  N. Sergueev,  S. M. Sharada,  
 S. Sharma,  D. W. Small,  A. Sodt,  T. Stauch,  T. Stein,  D. Stuck,  
 Y.-C. Su,  A. J. W. Thom,  T. Tsuchimochi,  L. Vogt,  O. Vydrov,  T. Wang,  
 M. A. Watson,  J. Wenzel,  A. White,  C. F. Williams,  V. Vanovschi,  
 S. Yeganeh,  S. R. Yost,  Z.-Q. You,  I. Y. Zhang,  X. Zhang,  Y. Zhao,  
 B. R. Brooks,  G. K. L. Chan,  D. M. Chipman,  C. J. Cramer,  
 W. A. Goddard III,  M. S. Gordon,  W. J. Hehre,  A. Klamt,  
 H. F. Schaefer III,  M. W. Schmidt,  C. D. Sherrill,  D. G. Truhlar,  
 A. Warshel,  X. Xu,  A. Aspuru-Guzik,  R. Baer,  A. T. Bell,  N. A. Besley,  
 J.-D. Chai,  A. Dreuw,  B. D. Dunietz,  T. R. Furlani,  S. R. Gwaltney,  
 C.-P. Hsu,  Y. Jung,  J. Kong,  D. S. Lambrecht,  W. Liang,  C. Ochsenfeld,  
 V. A. Rassolov,  L. V. Slipchenko,  J. E. Subotnik,  T. Van Voorhis,  
 J. M. Herbert,  A. I. Krylov,  P. M. W. Gill,  M. Head-Gordon

 Contributors to earlier versions of Q-Chem not listed above: 
 R. D. Adamson,  J. Baker,  E. F. C. Byrd,  A. K. Chakraborty,  C.-L. Cheng,  
 H. Dachsel,  R. J. Doerksen,  G. Hawkins,  A. Heyden,  S. Hirata,  
 G. Kedziora,  F. J. Keil,  C. Kelley,  P. P. Korambath,  W. Kurlancheek,  
 A. M. Lee,  M. S. Lee,  D. Liotard,  I. Lotan,  P. E. Maslen,  N. Nair,  
 D. Neuhauser,  R. Olson,  B. Peters,  J. Ritchie,  N. E. Schultz,  
 N. Shenvi,  A. C. Simmonett,  K. S. Thanthiriwatte,  Q. Wu,  W. Zhang

 Please cite Q-Chem as follows:
 Y. Shao et al., Mol. Phys. 113, 184-215 (2014)
 DOI: 10.1080/00268976.2014.952696

 Q-Chem 4.3.0 for Intel X86 EM64T Linux

 Parts of Q-Chem use Armadillo 4.550.3 (Singapore Sling Deluxe).
 http://arma.sourceforge.net/

 Q-Chem begins on Sun Sep 20 21:05:20 2015  

Host: n52
0

     Scratch files written to /scratch/3126470.clusman0a.frank.sam.pitt.edu/qchem74201//
 Mar1615 |home|dlambrecht|erb74|opt|apps|qchem|trunk_RNUM -1

Checking the input file for inconsistencies...	...done.

--------------------------------------------------------------
User input:
--------------------------------------------------------------
$rem
jobtype opt
exchange b3lyp
basis 6-31g
$end

$molecule
0 1
C          2.05639       -0.16543        0.39727
C          0.68890        2.02854       -0.64816
C          2.74071        1.02327        0.12533
C          2.05734        2.11782       -0.40016
C         -3.59396        1.03209        0.04589
C          0.67738       -0.27507        0.15097
C          0.00274        0.84234       -0.35887
O          0.63293       -2.54526        0.93360
O         -1.76452        1.43252        1.56571
O         -1.24894       -1.68411        0.12975
C          0.05278       -1.58881        0.44958
C         -2.15199        1.12841        0.44513
O         -1.36167        0.82832       -0.65825
H         -1.47652       -2.60111        0.39232
H          2.60948       -1.01173        0.80284
H          0.15708        2.88266       -1.05823
H          3.80777        1.09126        0.32364
H          2.59044        3.04081       -0.61405
H         -3.81640        0.02049       -0.30287
H         -4.22480        1.24591        0.91440
H         -3.81296        1.76576       -0.73332
$end
--------------------------------------------------------------
 ----------------------------------------------------------------
             Standard Nuclear Orientation (Angstroms)
    I     Atom           X                Y                Z
 ----------------------------------------------------------------
    1      C       2.2659778615    -0.4048538598     0.2384124484
    2      C       0.8404766219     1.8941687731    -0.4390078754
    3      C       2.9041868558     0.8392784395     0.2296364871
    4      C       2.1920373263     1.9869454065    -0.1122371445
    5      C      -3.4154789090     0.6198772184    -0.1552274369
    6      C       0.9047546129    -0.5183311991    -0.0910528162
    7      C       0.1996105502     0.6491064344    -0.4128326881
    8      O       0.9352655571    -2.8961656812     0.2454295956
    9      O      -1.6699656302     0.7928002020     1.5001664033
   10      O      -0.9508341985    -1.9703180891    -0.4719425462
   11      C       0.3309408922    -1.8879083468    -0.0768355628
   12      C      -1.9969904466     0.6935154295     0.3247887053
   13      O      -1.1493792144     0.6401111855    -0.7755795606
   14      H      -1.1455606429    -2.9286248480    -0.3987685814
   15      H       2.8413022770    -1.2911343310     0.5032293784
   16      H       0.2861964531     2.7897951564    -0.7057245186
   17      H       3.9579616369     0.9090854213     0.4889668477
   18      H       2.6894410725     2.9535663171    -0.1216504729
   19      H      -3.5758547746    -0.3143388015    -0.6992565365
   20      H      -4.0903466424     0.6396144990     0.7062548323
   21      H      -3.6369236834     1.4798258756    -0.7915067874
 ----------------------------------------------------------------
 Molecular Point Group                 C1    NOp =  1
 Largest Abelian Subgroup              C1    NOp =  1
 Nuclear Repulsion Energy =   782.6611652780 hartrees
 There are       47 alpha and       47 beta electrons
 Requested basis set is 6-31G
 There are 55 shells and 133 basis functions

Total QAlloc Memory Limit   2000 MB
Mega-Array Size        61 MB
MEM_STATIC part        62 MB
 A cutoff of  1.0D-11 yielded   1253 shell pairs
 There are      8267 function pairs
 
 -------------------------------------------------------
 OpenMP Integral Computing Module                       
 Release: version 1.0, May 2013, Q-Chem Inc. Pittsburgh 
 -------------------------------------------------------
 Integral Job Info:
 Integral job number is                      11
 Integral operator is                         1
 short-range coefficients               -999999
 long-range coefficients                -999999
 Omega coefficients                           0
 if combine SR and LR in K              -999999
 Integral screening is                        0
 Integral computing path is                   2
 max size of driver memory is            800000
 size of driver memory is                 45569
 size of scratch memory is              1939132
 max col of scratch BK array                289
 max len of scratch array in speh3           22
 max len of scratch index in speh4            8
 max int batch size is                      520
 min int batch size is                       52
 fixed nKL is                                52
 max L of basis functions is                  1
 order of int derivative is                   0
 number of shells is                         55
 number of basis is                         133
 number of cartesian basis is               133
 number of contracted shell pairs          1253
 number of primitive shell pairs           5611
 maxK2 (contraction) of shell pair           36
 max number of K2 of shell pair               1
 max number of CS2 of shell pair            220
 max number of PS2 of shell pair           1320
 mem total for path MDJ                   45678
 -------------------------------------------------------
 Smallest overlap matrix eigenvalue = 5.37E-04

  Scale SEOQF with 1.000000e-01/1.000000e-01/1.000000e-01

 Standard Electronic Orientation quadrupole field applied
 Nucleus-field energy     =     0.0000000242 hartrees
 Guess from superposition of atomic densities
 Warning:  Energy on first SCF cycle will be non-variational
 A restricted hybrid HF-DFT SCF calculation will be
 performed using Pulay DIIS extrapolation
 Exchange:     0.2000 Hartree-Fock + 0.0800 Slater + 0.7200 Becke88
 Correlation:  0.8100 LYP + 0.1900 VWN1RPA
 Using SG-1 standard quadrature grid
 SCF converges when DIIS error is below 1.0E-08
 CPU 0.00 s  wall 0.00 s
 CPU 3.31 s  wall 3.33 s

 Total DFTman time = 3.31 CPUs 3.33 Wall
 ---------------------------------------
  Cycle       Energy         DIIS Error
 ---------------------------------------
    1    -651.4222336260      8.75E-02
 CPU 0.00 s  wall 0.00 s
 CPU 1.94 s  wall 1.94 s

 Total DFTman time = 1.94 CPUs 1.94 Wall
    2    -648.1809494292      1.24E-02
 CPU 0.00 s  wall 0.00 s
 CPU 1.94 s  wall 1.95 s

 Total DFTman time = 1.94 CPUs 1.95 Wall
    3    -647.3797212058      2.47E-02
 CPU 0.00 s  wall 0.00 s
 CPU 1.92 s  wall 1.92 s

 Total DFTman time = 1.92 CPUs 1.92 Wall
    4    -648.4238689756      5.71E-03
 CPU 0.00 s  wall 0.00 s
 CPU 1.90 s  wall 1.90 s

 Total DFTman time = 1.90 CPUs 1.90 Wall
    5    -648.4835469651      1.33E-03
 CPU 0.00 s  wall 0.00 s
 CPU 1.87 s  wall 1.87 s

 Total DFTman time = 1.87 CPUs 1.87 Wall
    6    -648.4860593832      5.03E-04
 CPU 0.00 s  wall 0.00 s
 CPU 1.85 s  wall 1.85 s

 Total DFTman time = 1.85 CPUs 1.85 Wall
    7    -648.4865671236      1.26E-04
 CPU 0.00 s  wall 0.00 s
 CPU 1.80 s  wall 1.80 s

 Total DFTman time = 1.80 CPUs 1.80 Wall
    8    -648.4865987325      4.48E-05
 CPU 0.00 s  wall 0.00 s
 CPU 1.77 s  wall 1.77 s

 Total DFTman time = 1.77 CPUs 1.77 Wall
    9    -648.4866024419      1.75E-05
 CPU 0.00 s  wall 0.00 s
 CPU 1.73 s  wall 1.73 s

 Total DFTman time = 1.73 CPUs 1.73 Wall
   10    -648.4866029484      5.92E-06
 CPU 0.00 s  wall 0.00 s
 CPU 1.70 s  wall 1.70 s

 Total DFTman time = 1.70 CPUs 1.70 Wall
   11    -648.4866030134      1.39E-06
 CPU 0.00 s  wall 0.00 s
 CPU 1.65 s  wall 1.65 s

 Total DFTman time = 1.65 CPUs 1.65 Wall
   12    -648.4866030173      6.71E-07
 CPU 0.00 s  wall 0.00 s
 CPU 1.60 s  wall 1.60 s

 Total DFTman time = 1.60 CPUs 1.60 Wall
   13    -648.4866030184      1.13E-07
 CPU 0.00 s  wall 0.00 s
 CPU 1.49 s  wall 1.49 s

 Total DFTman time = 1.49 CPUs 1.49 Wall
   14    -648.4866030186      4.70E-08
 CPU 0.00 s  wall 0.00 s
 CPU 1.36 s  wall 1.36 s

 Total DFTman time = 1.36 CPUs 1.36 Wall
   15    -648.4866030189      8.69E-09 Convergence criterion met
 ---------------------------------------
 SCF time:  CPU 46.64 s  wall 46.73 s
 SCF   energy in the final basis set = -648.4866030189
 Total energy in the final basis set = -648.4866030189
 Analysis of SCF Wavefunction
 
 --------------------------------------------------------------
 
                    Orbital Energies (a.u.)
 --------------------------------------------------------------
 
 Alpha MOs
 -- Occupied --
-19.208 -19.205 -19.154 -19.150 -10.339 -10.336 -10.273 -10.225
-10.212 -10.211 -10.209 -10.205 -10.193  -1.146  -1.130  -1.050
 -1.041  -0.884  -0.794  -0.785  -0.748  -0.684  -0.649  -0.614
 -0.591  -0.533  -0.513  -0.498  -0.493  -0.480  -0.476  -0.466
 -0.461  -0.452  -0.414  -0.410  -0.407  -0.396  -0.382  -0.372
 -0.369  -0.327  -0.316  -0.291  -0.284  -0.275  -0.265
 -- Virtual --
 -0.060  -0.020  -0.009   0.043   0.064   0.085   0.110   0.132
  0.139   0.151   0.160   0.168   0.175   0.186   0.218   0.234
  0.243   0.261   0.285   0.317   0.320   0.346   0.362   0.394
  0.491   0.499   0.508   0.532   0.539   0.550   0.565   0.577
  0.583   0.589   0.601   0.612   0.621   0.629   0.633   0.645
  0.650   0.662   0.682   0.690   0.733   0.758   0.782   0.802
  0.814   0.823   0.849   0.854   0.878   0.888   0.902   0.924
  0.931   0.947   0.952   0.962   0.979   0.979   0.996   1.022
  1.035   1.050   1.082   1.110   1.121   1.131   1.174   1.203
  1.210   1.248   1.288   1.328   1.412   1.440   1.461   1.486
  1.573   1.778   1.818   1.911   2.084   2.117
 --------------------------------------------------------------
 
          Ground-State Mulliken Net Atomic Charges

     Atom                 Charge (a.u.)
  ----------------------------------------
      1 C                    -0.158433
      2 C                    -0.098974
      3 C                    -0.118636
      4 C                    -0.116758
      5 C                    -0.457399
      6 C                     0.127709
      7 C                     0.226182
      8 O                    -0.395081
      9 O                    -0.391127
     10 O                    -0.536981
     11 C                     0.399637
     12 C                     0.501710
     13 O                    -0.512341
     14 H                     0.386429
     15 H                     0.178300
     16 H                     0.146851
     17 H                     0.140405
     18 H                     0.144389
     19 H                     0.186574
     20 H                     0.172381
     21 H                     0.175164
  ----------------------------------------
  Sum of atomic charges =     0.000000

 -----------------------------------------------------------------
                    Cartesian Multipole Moments
 -----------------------------------------------------------------
    Charge (ESU x 10^10)
                 0.0000
    Dipole Moment (Debye)
         X      -0.3908      Y       1.5643      Z      -1.7947
       Tot       2.4126
    Quadrupole Moments (Debye-Ang)
        XX     -61.0698     XY       8.1435     YY     -70.1567
        XZ       3.1487     YZ      -0.5243     ZZ     -81.1655
    Octopole Moments (Debye-Ang^2)
       XXX     -18.5328    XXY       5.8815    XYY     -24.6862
       YYY      11.1531    XXZ       1.0972    XYZ       3.7003
       YYZ     -12.2424    XZZ       0.4053    YZZ     -11.3914
       ZZZ      -4.7417
    Hexadecapole Moments (Debye-Ang^3)
      XXXX   -1465.2601   XXXY       4.3919   XXYY    -414.7877
      XYYY     102.0150   YYYY   -1007.4579   XXXZ      29.2087
      XXYZ      -1.2527   XYYZ       2.8055   YYYZ      21.7855
      XXZZ    -331.0023   XYZZ      -0.6150   YYZZ    -210.2931
      XZZZ       9.1383   YZZZ      -1.3074   ZZZZ    -218.0768
 -----------------------------------------------------------------
 Calculating analytic gradient of the SCF energy
 Gradient of Coulomb and Exchange Energy
            1           2           3           4           5           6
    1 -10.9820638   0.6868964 -13.1128384  -8.1380709   9.5797820  -0.3162651
    2   5.1286011 -12.7782619  -2.2168291 -11.6647420  -1.4331028   7.0552375
    3  -2.8287031   3.5556128  -2.6291995   0.2347398   0.8265206   0.3501917
            7           8           9          10          11          12
    1   1.5768143 -11.4775237   0.9434365  12.7510740   2.7525451   8.0099918
    2  -2.4556861  25.2019869  -4.8809231   4.1896005  -0.3705605  -1.1857504
    3   2.0552128  -6.1142196 -27.1313518   6.2233781   2.0153698   7.6817754
           13          14          15          16          17          18
    1   8.6094532   1.6436587  -4.0860586   2.4396262  -5.6218098  -2.8140861
    2  -4.3169272   6.2997109   4.6029271  -5.6644019  -0.5250616  -5.0735218
    3  15.4760877  -0.2603844  -1.5932083   1.6893719  -1.3364396   0.0540828
           19          20          21
    1   1.8872462   3.7306664   1.9375256
    2   4.2062391  -0.1378891  -3.9806455
    3   2.3932564  -3.3480407   2.6859474
 CPU 0.00 s  wall 0.00 s
 CPU 3.62 s  wall 3.62 s

 Total DFTman time = 3.62 CPUs 3.62 Wall
 Gradient of SCF Energy
            1           2           3           4           5           6
    1  -0.0090454   0.0003831  -0.0040077  -0.0009212   0.0054996  -0.0023089
    2  -0.0044859   0.0004528   0.0067583  -0.0043577   0.0002588   0.0082083
    3  -0.0015003  -0.0008202  -0.0023149   0.0008266  -0.0076300  -0.0014508
            7           8           9          10          11          12
    1  -0.0231087  -0.0219856  -0.0142398   0.0234191  -0.0118763   0.0396903
    2  -0.0119802   0.0270446   0.0000779   0.0075878  -0.0386595   0.0025465
    3   0.0105472  -0.0102121  -0.0000105   0.0047867   0.0012028   0.0027506
           13          14          15          16          17          18
    1  -0.0034629   0.0124904   0.0061404   0.0019217   0.0019538   0.0012682
    2  -0.0012905   0.0036061  -0.0005845   0.0037535   0.0007309   0.0010247
    3  -0.0117601   0.0034484   0.0018058  -0.0001825   0.0004284   0.0003132
           19          20          21
    1  -0.0006422  -0.0020925   0.0009242
    2  -0.0019494  -0.0006506   0.0019081
    3   0.0042762   0.0009802   0.0045154
 Max gradient component =       3.969E-02
 RMS gradient           =       1.052E-02
 Gradient time:  CPU 11.64 s  wall 11.66 s
 Geometry Optimization Parameters
   NAtoms,    NIC,     NZ,  NCons,   NDum,   NFix, NCnnct, MaxDiis
       21     135       0       0       0       0       0       0


** GEOMETRY OPTIMIZATION IN DELOCALIZED INTERNAL COORDINATES **
   Searching for a Minimum

   Optimization Cycle:   1

                       Coordinates (Angstroms)
     ATOM                X               Y               Z
      1  C         2.2659778615   -0.4048538598    0.2384124484
      2  C         0.8404766219    1.8941687731   -0.4390078754
      3  C         2.9041868558    0.8392784395    0.2296364871
      4  C         2.1920373263    1.9869454065   -0.1122371445
      5  C        -3.4154789090    0.6198772184   -0.1552274369
      6  C         0.9047546129   -0.5183311991   -0.0910528162
      7  C         0.1996105502    0.6491064344   -0.4128326881
      8  O         0.9352655571   -2.8961656812    0.2454295956
      9  O        -1.6699656302    0.7928002020    1.5001664033
     10  O        -0.9508341985   -1.9703180891   -0.4719425462
     11  C         0.3309408922   -1.8879083468   -0.0768355628
     12  C        -1.9969904466    0.6935154295    0.3247887053
     13  O        -1.1493792144    0.6401111855   -0.7755795606
     14  H        -1.1455606429   -2.9286248480   -0.3987685814
     15  H         2.8413022770   -1.2911343310    0.5032293784
     16  H         0.2861964531    2.7897951564   -0.7057245186
     17  H         3.9579616369    0.9090854213    0.4889668477
     18  H         2.6894410725    2.9535663171   -0.1216504729
     19  H        -3.5758547746   -0.3143388015   -0.6992565365
     20  H        -4.0903466424    0.6396144990    0.7062548323
     21  H        -3.6369236834    1.4798258756   -0.7915067874
   Point Group: c1    Number of degrees of freedom:    57


   Energy is   -648.486603019


 Attempting to Generate Delocalized Internal Coordinates

 57 Hessian modes will be used to form the next step
  Hessian Eigenvalues:
     0.009269    0.011164    0.011290    0.014852    0.016050    0.016968
     0.018607    0.021225    0.022064    0.022215    0.022488    0.022776
     0.022957    0.023077    0.023095    0.023277    0.074958    0.076717
     0.159995    0.159999    0.160000    0.160000    0.160000    0.160000
     0.160000    0.160000    0.219998    0.224863    0.244761    0.249747
     0.249990    0.249993    0.249995    0.250000    0.250000    0.250000
     0.324492    0.340041    0.342948    0.344787    0.345334    0.348913
     0.351080    0.351462    0.352187    0.415073    0.419284    0.451957
     0.457286    0.460689    0.461315    0.465815    0.473183    0.512637
     0.563577    0.936081    0.958853

 Minimum Search - Taking Simple RFO Step
 Searching for Lamda that Minimizes Along All modes
 Value Taken    Lamda =  -0.01882288
 Step Taken.  Stepsize is  0.290606

                             Maximum     Tolerance    Cnvgd?
         Gradient           0.035681      0.000300      NO
         Displacement       0.145858      0.001200      NO
         Energy change     *********      0.000001      NO


 New Cartesian Coordinates Obtained by Inverse Iteration

 Displacement from previous Coordinates is:  1.232564
 ----------------------------------------------------------------
             Standard Nuclear Orientation (Angstroms)
    I     Atom           X                Y                Z
 ----------------------------------------------------------------
    1      C       2.3309193520    -0.4014327866     0.1671732971
    2      C       0.8933808494     1.9254073501    -0.3656840525
    3      C       2.9888535791     0.8277087437     0.1505835673
    4      C       2.2668852632     1.9961194430    -0.1188173393
    5      C      -3.5040933762     0.6086092527    -0.2377144523
    6      C       0.9491978470    -0.4941314163    -0.0789938253
    7      C       0.2380555431     0.6930308850    -0.3395739206
    8      O       1.0410966821    -2.8712523823     0.2409230029
    9      O      -1.8343529104     0.6393954166     1.5494506419
   10      O      -0.9763161755    -1.9588654740    -0.2827132193
   11      C       0.3744316693    -1.8631063410    -0.0286845537
   12      C      -2.1215104072     0.6471325341     0.3574065035
   13      O      -1.1488054346     0.6957549855    -0.6551029646
   14      H      -1.2721701259    -2.8975085570    -0.2171380845
   15      H       2.8785782006    -1.3126999240     0.3751993834
   16      H       0.3205813833     2.8190668873    -0.5827355426
   17      H       4.0545581711     0.8726722943     0.3467213615
   18      H       2.7693713079     2.9575823079    -0.1371534002
   19      H      -3.6001679241    -0.2646473276    -0.8887284275
   20      H      -4.2427228469     0.5490385627     0.5637339129
   21      H      -3.6889530717     1.5081407477    -0.8328897175
 ----------------------------------------------------------------
 Molecular Point Group                 C1    NOp =  1
 Largest Abelian Subgroup              C1    NOp =  1
 Nuclear Repulsion Energy =   774.2342922705 hartrees
 There are       47 alpha and       47 beta electrons
 Applying Cartesian multipole field
    Component          Value
    ---------          -----
     (2,0,0)        1.00000E-11
     (0,2,0)        2.00000E-11
     (0,0,2)       -3.00000E-11
 Nucleus-field energy     =     0.0000000251 hartrees
 Requested basis set is 6-31G
 There are 55 shells and 133 basis functions
 A cutoff of  1.0D-11 yielded   1240 shell pairs
 There are      8194 function pairs
 Smallest overlap matrix eigenvalue = 5.49E-04
 Guess MOs from SCF MO coefficient file
 Reading MOs from coefficient file
 Reading MOs from coefficient file
 A restricted hybrid HF-DFT SCF calculation will be
 performed using Pulay DIIS extrapolation
 Exchange:     0.2000 Hartree-Fock + 0.0800 Slater + 0.7200 Becke88
 Correlation:  0.8100 LYP + 0.1900 VWN1RPA
 Using SG-1 standard quadrature grid
 SCF converges when DIIS error is below 1.0E-08
Geometry optimization detected.  Setting ReadMinima to 0
Setting SaveMinima to 0
 CPU 0.00 s  wall 0.00 s
 CPU 3.85 s  wall 3.86 s

 Total DFTman time = 3.85 CPUs 3.86 Wall
 ---------------------------------------
  Cycle       Energy         DIIS Error
 ---------------------------------------
    1    -648.4216726114      5.60E-03
 CPU 0.00 s  wall 0.00 s
 CPU 1.86 s  wall 1.86 s

 Total DFTman time = 1.86 CPUs 1.86 Wall
    2    -648.4935819035      6.74E-04
 CPU 0.00 s  wall 0.00 s
 CPU 1.84 s  wall 1.84 s

 Total DFTman time = 1.84 CPUs 1.84 Wall
    3    -648.4924282796      1.14E-03
 CPU 0.00 s  wall 0.00 s
 CPU 1.83 s  wall 1.83 s

 Total DFTman time = 1.83 CPUs 1.83 Wall
    4    -648.4947688762      1.83E-04
 CPU 0.00 s  wall 0.00 s
 CPU 1.78 s  wall 1.78 s

 Total DFTman time = 1.78 CPUs 1.78 Wall
    5    -648.4947995678      1.33E-04
 CPU 0.00 s  wall 0.00 s
 CPU 1.76 s  wall 1.76 s

 Total DFTman time = 1.76 CPUs 1.76 Wall
    6    -648.4948306952      3.33E-05
 CPU 0.00 s  wall 0.00 s
 CPU 1.73 s  wall 1.73 s

 Total DFTman time = 1.73 CPUs 1.73 Wall
    7    -648.4948327744      8.19E-06
 CPU 0.00 s  wall 0.00 s
 CPU 1.70 s  wall 1.70 s

 Total DFTman time = 1.70 CPUs 1.70 Wall
    8    -648.4948329077      4.15E-06
 CPU 0.00 s  wall 0.00 s
 CPU 1.65 s  wall 1.66 s

 Total DFTman time = 1.65 CPUs 1.66 Wall
    9    -648.4948329465      1.16E-06
 CPU 0.00 s  wall 0.00 s
 CPU 1.62 s  wall 1.62 s

 Total DFTman time = 1.62 CPUs 1.62 Wall
   10    -648.4948329488      4.98E-07
 CPU 0.00 s  wall 0.00 s
 CPU 1.55 s  wall 1.56 s

 Total DFTman time = 1.55 CPUs 1.56 Wall
   11    -648.4948329497      2.25E-07
 CPU 0.00 s  wall 0.00 s
 CPU 1.51 s  wall 1.51 s

 Total DFTman time = 1.51 CPUs 1.51 Wall
   12    -648.4948329490      5.20E-08
 CPU 0.00 s  wall 0.00 s
 CPU 1.38 s  wall 1.38 s

 Total DFTman time = 1.38 CPUs 1.38 Wall
   13    -648.4948329482      1.65E-08
 CPU 0.00 s  wall 0.00 s
 CPU 1.23 s  wall 1.24 s

 Total DFTman time = 1.23 CPUs 1.24 Wall
   14    -648.4948329487      4.34E-09 Convergence criterion met
 ---------------------------------------
 SCF time:  CPU 41.97 s  wall 42.01 s
 SCF   energy in the final basis set = -648.4948329487
 Total energy in the final basis set = -648.4948329487
 Analysis of SCF Wavefunction
 
 --------------------------------------------------------------
 
                    Orbital Energies (a.u.)
 --------------------------------------------------------------
 
 Alpha MOs
 -- Occupied --
-19.201 -19.198 -19.150 -19.150 -10.341 -10.337 -10.276 -10.226
-10.214 -10.210 -10.209 -10.206 -10.200  -1.121  -1.111  -1.037
 -1.030  -0.882  -0.791  -0.784  -0.751  -0.682  -0.648  -0.613
 -0.591  -0.533  -0.508  -0.498  -0.485  -0.472  -0.470  -0.460
 -0.453  -0.451  -0.417  -0.408  -0.402  -0.394  -0.383  -0.369
 -0.363  -0.323  -0.310  -0.287  -0.284  -0.274  -0.262
 -- Virtual --
 -0.063  -0.019  -0.008   0.039   0.057   0.082   0.108   0.126
  0.140   0.150   0.159   0.166   0.172   0.183   0.215   0.227
  0.241   0.270   0.281   0.311   0.318   0.338   0.357   0.390
  0.493   0.497   0.508   0.533   0.538   0.545   0.563   0.573
  0.580   0.586   0.599   0.615   0.619   0.628   0.634   0.643
  0.647   0.660   0.675   0.686   0.715   0.750   0.777   0.808
  0.817   0.828   0.854   0.859   0.875   0.883   0.903   0.921
  0.931   0.946   0.950   0.957   0.977   0.983   0.991   1.028
  1.037   1.048   1.090   1.114   1.117   1.148   1.161   1.205
  1.210   1.257   1.288   1.325   1.423   1.452   1.477   1.488
  1.560   1.782   1.822   1.900   2.048   2.105
 --------------------------------------------------------------
 
          Ground-State Mulliken Net Atomic Charges

     Atom                 Charge (a.u.)
  ----------------------------------------
      1 C                    -0.158938
      2 C                    -0.111115
      3 C                    -0.116376
      4 C                    -0.118529
      5 C                    -0.457291
      6 C                     0.104995
      7 C                     0.262033
      8 O                    -0.408212
      9 O                    -0.396849
     10 O                    -0.564873
     11 C                     0.440133
     12 C                     0.524236
     13 O                    -0.548409
     14 H                     0.391407
     15 H                     0.180389
     16 H                     0.147703
     17 H                     0.141577
     18 H                     0.144362
     19 H                     0.188727
     20 H                     0.176221
     21 H                     0.178810
  ----------------------------------------
  Sum of atomic charges =    -0.000000

 -----------------------------------------------------------------
                    Cartesian Multipole Moments
 -----------------------------------------------------------------
    Charge (ESU x 10^10)
                 0.0000
    Dipole Moment (Debye)
         X      -0.6558      Y       1.6807      Z      -1.9385
       Tot       2.6481
    Quadrupole Moments (Debye-Ang)
        XX     -59.6447     XY       8.7856     YY     -69.8505
        XZ       3.8482     YZ      -0.3880     ZZ     -81.3132
    Octopole Moments (Debye-Ang^2)
       XXX     -24.6730    XXY       6.5752    XYY     -27.9787
       YYY      11.0113    XXZ      -5.0144    XYZ       3.2862
       YYZ     -10.5001    XZZ      -0.0447    YZZ     -10.9414
       ZZZ     -10.9698
    Hexadecapole Moments (Debye-Ang^3)
      XXXX   -1542.1189   XXXY       4.4561   XXYY    -429.0025
      XYYY     107.5123   YYYY    -994.0008   XXXZ      42.9963
      XXYZ       0.9356   XYYZ       3.4762   YYYZ      24.8762
      XXZZ    -353.3370   XYZZ      -2.0475   YYZZ    -207.2504
      XZZZ      25.6184   YZZZ       9.1212   ZZZZ    -208.9461
 -----------------------------------------------------------------
 Calculating analytic gradient of the SCF energy
 Gradient of Coulomb and Exchange Energy
            1           2           3           4           5           6
    1 -10.9644288   0.3937899 -13.1970716  -8.0793537   9.4746516  -0.4012574
    2   4.9316593 -12.8623809  -2.1538334 -11.3995826  -1.4042822   6.7154166
    3  -1.9925400   2.6184226  -1.9150138   0.2841890   1.0322013   0.4859710
            7           8           9          10          11          12
    1   1.4022339 -12.3303037   1.2808933  12.0577494   3.3256508   9.4698773
    2  -2.7521123  24.4923607  -2.7279033   4.9312650  -0.4548252  -1.8544300
    3   1.7802527  -4.9520241 -26.9945393   4.2055132   1.8677716   8.7396303
           13          14          15          16          17          18
    1   7.4335151   2.5906013  -3.8792913   2.6476723  -5.6872873  -2.8224426
    2  -5.2608848   6.0060663   4.7943768  -5.5531861  -0.3740976  -5.0438877
    3  13.1245316  -0.1793806  -1.2273804   1.4007431  -1.0118525   0.1108702
           19          20          21
    1   1.5372747   3.9748142   1.7727124
    2   3.8103232   0.1557105  -3.9957724
    3   3.0584016  -3.0815414   2.6457738
 CPU 0.00 s  wall 0.00 s
 CPU 3.53 s  wall 3.53 s

 Total DFTman time = 3.53 CPUs 3.53 Wall
 Gradient of SCF Energy
            1           2           3           4           5           6
    1  -0.0033828   0.0005286   0.0006061   0.0001240  -0.0028137   0.0053558
    2  -0.0022782  -0.0007759   0.0009083   0.0003103  -0.0001497   0.0036334
    3  -0.0002274   0.0000322  -0.0001831   0.0006496  -0.0021335   0.0003747
            7           8           9          10          11          12
    1   0.0050674  -0.0003639  -0.0000318   0.0028026  -0.0003102   0.0001351
    2  -0.0001825   0.0026387  -0.0004592   0.0006073  -0.0011953   0.0025906
    3  -0.0000816   0.0010697   0.0002348   0.0011031  -0.0030581  -0.0009873
           13          14          15          16          17          18
    1  -0.0034695  -0.0042935   0.0014258   0.0006770   0.0002105   0.0003642
    2  -0.0029112  -0.0037212   0.0008797   0.0003871  -0.0001311  -0.0000549
    3   0.0011234  -0.0006430   0.0003637  -0.0002427   0.0000861   0.0000238
           19          20          21
    1  -0.0007786  -0.0013304  -0.0005224
    2  -0.0005407  -0.0002052   0.0006498
    3   0.0013103  -0.0001950   0.0013804
 Max gradient component =       5.356E-03
 RMS gradient           =       1.788E-03
 Gradient time:  CPU 11.42 s  wall 11.43 s
 Geometry Optimization Parameters
   NAtoms,    NIC,     NZ,  NCons,   NDum,   NFix, NCnnct, MaxDiis
       21     135       0       0       0       0       0       0

 Cartesian Hessian Update
 Hessian Updated using BFGS Update


** GEOMETRY OPTIMIZATION IN DELOCALIZED INTERNAL COORDINATES **
   Searching for a Minimum

   Optimization Cycle:   2

                       Coordinates (Angstroms)
     ATOM                X               Y               Z
      1  C         2.3309193520   -0.4014327866    0.1671732971
      2  C         0.8933808494    1.9254073501   -0.3656840525
      3  C         2.9888535791    0.8277087437    0.1505835673
      4  C         2.2668852632    1.9961194430   -0.1188173393
      5  C        -3.5040933762    0.6086092527   -0.2377144523
      6  C         0.9491978470   -0.4941314163   -0.0789938253
      7  C         0.2380555431    0.6930308850   -0.3395739206
      8  O         1.0410966821   -2.8712523823    0.2409230029
      9  O        -1.8343529104    0.6393954166    1.5494506419
     10  O        -0.9763161755   -1.9588654740   -0.2827132193
     11  C         0.3744316693   -1.8631063410   -0.0286845537
     12  C        -2.1215104072    0.6471325341    0.3574065035
     13  O        -1.1488054346    0.6957549855   -0.6551029646
     14  H        -1.2721701259   -2.8975085570   -0.2171380845
     15  H         2.8785782006   -1.3126999240    0.3751993834
     16  H         0.3205813833    2.8190668873   -0.5827355426
     17  H         4.0545581711    0.8726722943    0.3467213615
     18  H         2.7693713079    2.9575823079   -0.1371534002
     19  H        -3.6001679241   -0.2646473276   -0.8887284275
     20  H        -4.2427228469    0.5490385627    0.5637339129
     21  H        -3.6889530717    1.5081407477   -0.8328897175
   Point Group: c1    Number of degrees of freedom:    57


   Energy is   -648.494832949

 Hessian Updated using BFGS Update

 54 Hessian modes will be used to form the next step
  Hessian Eigenvalues:
     0.009269    0.011169    0.011295    0.014931    0.015951    0.016996
     0.018628    0.021219    0.022023    0.022212    0.022457    0.022778
     0.022957    0.023078    0.023096    0.023277    0.074434    0.076717
     0.157125    0.159996    0.160000    0.160000    0.160000    0.169796
     0.219967    0.225004    0.240760    0.246293    0.249755    0.249990
     0.249993    0.249997    0.278124    0.329173    0.340832    0.342817
     0.344782    0.345325    0.348922    0.351034    0.351447    0.352190
     0.415149    0.419311    0.451960    0.456316    0.460085    0.465630
     0.469885    0.487791    0.518082    0.569915    0.935970    0.943428

 Minimum Search - Taking Simple RFO Step
 Searching for Lamda that Minimizes Along All modes
 Value Taken    Lamda =  -0.00142666
 Step Taken.  Stepsize is  0.202249

                             Maximum     Tolerance    Cnvgd?
         Gradient           0.008819      0.000300      NO
         Displacement       0.068389      0.001200      NO
         Energy change     -0.008230      0.000001      NO


 New Cartesian Coordinates Obtained by Inverse Iteration

 Displacement from previous Coordinates is:  0.628731
 ----------------------------------------------------------------
             Standard Nuclear Orientation (Angstroms)
    I     Atom           X                Y                Z
 ----------------------------------------------------------------
    1      C       2.3182014054    -0.3978337588     0.1534329552
    2      C       0.9068847647     1.9546270826    -0.3469351405
    3      C       2.9944146738     0.8204305349     0.1244184347
    4      C       2.2855782896     2.0021402063    -0.1270606358
    5      C      -3.4731321871     0.5583916554    -0.2638535283
    6      C       0.9289965665    -0.4689979490    -0.0632284192
    7      C       0.2386167483     0.7311629425    -0.3192696792
    8      O       0.9857018551    -2.8572614937     0.2085140898
    9      O      -1.8301521552     0.5279208801     1.5484741499
   10      O      -1.0308697367    -1.8807680593    -0.1969643556
   11      C       0.3299121297    -1.8227104369     0.0130869028
   12      C      -2.1093782674     0.5992448196     0.3566651486
   13      O      -1.1383719395     0.7499839856    -0.6436744087
   14      H      -1.3233222195    -2.8159611962    -0.1300607421
   15      H       2.8448726365    -1.3235649081     0.3494022854
   16      H       0.3385144210     2.8533931553    -0.5534337196
   17      H       4.0640271075     0.8488149884     0.2986511723
   18      H       2.8007203826     2.9564187884    -0.1521182899
   19      H      -3.5243913285    -0.2722448235    -0.9737703028
   20      H      -4.2206818551     0.4301163176     0.5193795222
   21      H      -3.6693237162     1.4827124706    -0.8163932685
 ----------------------------------------------------------------
 Molecular Point Group                 C1    NOp =  1
 Largest Abelian Subgroup              C1    NOp =  1
 Nuclear Repulsion Energy =   778.0943987702 hartrees
 There are       47 alpha and       47 beta electrons
 Applying Cartesian multipole field
    Component          Value
    ---------          -----
     (2,0,0)        1.00000E-11
     (0,2,0)        2.00000E-11
     (0,0,2)       -3.00000E-11
 Nucleus-field energy     =     0.0000000248 hartrees
 Requested basis set is 6-31G
 There are 55 shells and 133 basis functions
 A cutoff of  1.0D-11 yielded   1243 shell pairs
 There are      8200 function pairs
 Smallest overlap matrix eigenvalue = 5.50E-04
 Guess MOs from SCF MO coefficient file
 Reading MOs from coefficient file
 Reading MOs from coefficient file
 A restricted hybrid HF-DFT SCF calculation will be
 performed using Pulay DIIS extrapolation
 Exchange:     0.2000 Hartree-Fock + 0.0800 Slater + 0.7200 Becke88
 Correlation:  0.8100 LYP + 0.1900 VWN1RPA
 Using SG-1 standard quadrature grid
 SCF converges when DIIS error is below 1.0E-08
Geometry optimization detected.  Setting ReadMinima to 0
Setting SaveMinima to 0
 CPU 0.00 s  wall 0.00 s
 CPU 3.88 s  wall 3.88 s

 Total DFTman time = 3.88 CPUs 3.88 Wall
 ---------------------------------------
  Cycle       Energy         DIIS Error
 ---------------------------------------
    1    -648.4923713304      2.90E-03
 CPU 0.00 s  wall 0.00 s
 CPU 1.85 s  wall 1.85 s

 Total DFTman time = 1.85 CPUs 1.85 Wall
    2    -648.4951860566      2.23E-04
 CPU 0.00 s  wall 0.00 s
 CPU 1.83 s  wall 1.83 s

 Total DFTman time = 1.83 CPUs 1.83 Wall
    3    -648.4951521894      3.20E-04
 CPU 0.00 s  wall 0.00 s
 CPU 1.81 s  wall 1.81 s

 Total DFTman time = 1.81 CPUs 1.81 Wall
    4    -648.4953709428      6.59E-05
 CPU 0.00 s  wall 0.00 s
 CPU 1.78 s  wall 1.78 s

 Total DFTman time = 1.78 CPUs 1.78 Wall
    5    -648.4953769475      4.13E-05
 CPU 0.00 s  wall 0.00 s
 CPU 1.73 s  wall 1.73 s

 Total DFTman time = 1.73 CPUs 1.73 Wall
    6    -648.4953796703      1.82E-05
 CPU 0.00 s  wall 0.00 s
 CPU 1.72 s  wall 1.72 s

 Total DFTman time = 1.72 CPUs 1.72 Wall
    7    -648.4953802563      3.77E-06
 CPU 0.00 s  wall 0.00 s
 CPU 1.67 s  wall 1.67 s

 Total DFTman time = 1.67 CPUs 1.67 Wall
    8    -648.4953802828      1.79E-06
 CPU 0.00 s  wall 0.00 s
 CPU 1.64 s  wall 1.64 s

 Total DFTman time = 1.64 CPUs 1.64 Wall
    9    -648.4953802889      6.19E-07
 CPU 0.00 s  wall 0.00 s
 CPU 1.58 s  wall 1.58 s

 Total DFTman time = 1.58 CPUs 1.58 Wall
   10    -648.4953802900      2.43E-07
 CPU 0.00 s  wall 0.00 s
 CPU 1.53 s  wall 1.53 s

 Total DFTman time = 1.53 CPUs 1.53 Wall
   11    -648.4953802896      8.74E-08
 CPU 0.00 s  wall 0.00 s
 CPU 1.45 s  wall 1.45 s

 Total DFTman time = 1.45 CPUs 1.45 Wall
   12    -648.4953802892      1.97E-08
 CPU 0.00 s  wall 0.00 s
 CPU 1.26 s  wall 1.26 s

 Total DFTman time = 1.26 CPUs 1.26 Wall
   13    -648.4953802894      6.20E-09 Convergence criterion met
 ---------------------------------------
 SCF time:  CPU 39.14 s  wall 39.26 s
 SCF   energy in the final basis set = -648.4953802894
 Total energy in the final basis set = -648.4953802894
 Analysis of SCF Wavefunction
 
 --------------------------------------------------------------
 
                    Orbital Energies (a.u.)
 --------------------------------------------------------------
 
 Alpha MOs
 -- Occupied --
-19.202 -19.198 -19.151 -19.150 -10.342 -10.336 -10.276 -10.226
-10.214 -10.210 -10.208 -10.206 -10.198  -1.123  -1.113  -1.038
 -1.030  -0.883  -0.792  -0.785  -0.751  -0.683  -0.648  -0.613
 -0.591  -0.533  -0.510  -0.498  -0.486  -0.473  -0.470  -0.460
 -0.454  -0.451  -0.418  -0.408  -0.404  -0.393  -0.382  -0.368
 -0.364  -0.325  -0.311  -0.288  -0.284  -0.274  -0.262
 -- Virtual --
 -0.064  -0.019  -0.006   0.039   0.059   0.084   0.110   0.128
  0.141   0.150   0.160   0.166   0.173   0.183   0.215   0.229
  0.241   0.270   0.281   0.312   0.318   0.338   0.357   0.392
  0.492   0.500   0.514   0.533   0.536   0.543   0.563   0.574
  0.582   0.589   0.599   0.617   0.620   0.628   0.634   0.643
  0.649   0.662   0.674   0.686   0.719   0.748   0.779   0.810
  0.817   0.828   0.855   0.859   0.868   0.882   0.905   0.922
  0.931   0.947   0.952   0.957   0.980   0.986   1.009   1.030
  1.036   1.053   1.090   1.111   1.119   1.158   1.161   1.204
  1.208   1.262   1.291   1.324   1.430   1.454   1.487   1.515
  1.578   1.780   1.829   1.910   2.060   2.103
 --------------------------------------------------------------
 
          Ground-State Mulliken Net Atomic Charges

     Atom                 Charge (a.u.)
  ----------------------------------------
      1 C                    -0.160148
      2 C                    -0.110198
      3 C                    -0.115743
      4 C                    -0.120425
      5 C                    -0.457866
      6 C                     0.112199
      7 C                     0.257005
      8 O                    -0.409980
      9 O                    -0.399963
     10 O                    -0.565841
     11 C                     0.440182
     12 C                     0.533572
     13 O                    -0.550238
     14 H                     0.391647
     15 H                     0.180033
     16 H                     0.148479
     17 H                     0.141375
     18 H                     0.144110
     19 H                     0.188246
     20 H                     0.174779
     21 H                     0.178774
  ----------------------------------------
  Sum of atomic charges =    -0.000000

 -----------------------------------------------------------------
                    Cartesian Multipole Moments
 -----------------------------------------------------------------
    Charge (ESU x 10^10)
                 0.0000
    Dipole Moment (Debye)
         X      -0.5979      Y       1.7414      Z      -1.8869
       Tot       2.6363
    Quadrupole Moments (Debye-Ang)
        XX     -59.8531     XY       8.6731     YY     -70.2107
        XZ       3.9697     YZ      -0.4021     ZZ     -81.1674
    Octopole Moments (Debye-Ang^2)
       XXX     -21.3950    XXY       5.2603    XYY     -26.4802
       YYY      12.4221    XXZ      -6.0563    XYZ       2.2035
       YYZ      -8.6711    XZZ       0.0350    YZZ     -10.9306
       ZZZ     -12.2831
    Hexadecapole Moments (Debye-Ang^3)
      XXXX   -1538.1649   XXXY      -9.2681   XXYY    -421.7737
      XYYY      87.4947   YYYY    -983.8837   XXXZ      43.3917
      XXYZ       2.8893   XYYZ       2.7869   YYYZ      26.5132
      XXZZ    -350.9090   XYZZ      -8.2549   YYZZ    -202.8645
      XZZZ      28.3661   YZZZ      17.3098   ZZZZ    -205.2590
 -----------------------------------------------------------------
 Calculating analytic gradient of the SCF energy
 Gradient of Coulomb and Exchange Energy
            1           2           3           4           5           6
    1 -11.0743980   0.2400242 -13.2026398  -8.2675529   9.7075409  -0.3816687
    2   5.0473400 -13.2007071  -2.0252409 -11.2887463  -1.3839110   6.6353728
    3  -1.8806846   2.3821542  -1.6003498   0.3405636   1.1581871   0.5974083
            7           8           9          10          11          12
    1   1.2195592 -12.0924199   1.5371429  12.0887560   3.3332176   9.4609051
    2  -2.8407221  24.9891279  -1.6499434   4.6652141  -0.4239889  -2.2350496
    3   1.6686648  -3.7061776 -27.3940899   3.6547559   0.7211017   8.7338532
           13          14          15          16          17          18
    1   7.4087943   2.5199163  -3.7226974   2.6410625  -5.7118123  -2.8733740
    2  -6.4018574   6.1034973   4.9159146  -5.5711486  -0.2882246  -5.0122249
    3  13.2656165  -0.2520103  -1.1456474   1.3166829  -0.8988801   0.1499457
           19          20          21
    1   1.3373398   4.0131683   1.8191358
    2   3.6020437   0.4353201  -4.0720657
    3   3.4279359  -3.0726800   2.5336500
 CPU 0.00 s  wall 0.00 s
 CPU 3.58 s  wall 3.58 s

 Total DFTman time = 3.58 CPUs 3.58 Wall
 Gradient of SCF Energy
            1           2           3           4           5           6
    1  -0.0010289  -0.0005663   0.0004259   0.0000631  -0.0005455   0.0014660
    2  -0.0011430  -0.0002739   0.0003644   0.0003826   0.0002031   0.0012789
    3  -0.0006626   0.0010661   0.0001487  -0.0000875  -0.0012309  -0.0022652
            7           8           9          10          11          12
    1   0.0035776   0.0017962   0.0004776   0.0002213  -0.0032202   0.0005797
    2   0.0018684  -0.0004601  -0.0008122   0.0017007  -0.0008744   0.0009022
    3   0.0004808  -0.0016111   0.0009692  -0.0006627   0.0052531  -0.0016032
           13          14          15          16          17          18
    1  -0.0029263  -0.0003196  -0.0000755   0.0002119  -0.0001393  -0.0001119
    2  -0.0032667  -0.0001791   0.0004015   0.0000811  -0.0001289  -0.0000300
    3   0.0000139  -0.0003429  -0.0000438  -0.0000662   0.0001397  -0.0001426
           19          20          21
    1  -0.0000207   0.0002522  -0.0001170
    2  -0.0000184  -0.0001005   0.0001042
    3   0.0000869   0.0003236   0.0002366
 Max gradient component =       5.253E-03
 RMS gradient           =       1.296E-03
 Gradient time:  CPU 11.53 s  wall 11.54 s
 Geometry Optimization Parameters
   NAtoms,    NIC,     NZ,  NCons,   NDum,   NFix, NCnnct, MaxDiis
       21     135       0       0       0       0       0       0

 Cartesian Hessian Update
 Hessian Updated using BFGS Update


** GEOMETRY OPTIMIZATION IN DELOCALIZED INTERNAL COORDINATES **
   Searching for a Minimum

   Optimization Cycle:   3

                       Coordinates (Angstroms)
     ATOM                X               Y               Z
      1  C         2.3182014054   -0.3978337588    0.1534329552
      2  C         0.9068847647    1.9546270826   -0.3469351405
      3  C         2.9944146738    0.8204305349    0.1244184347
      4  C         2.2855782896    2.0021402063   -0.1270606358
      5  C        -3.4731321871    0.5583916554   -0.2638535283
      6  C         0.9289965665   -0.4689979490   -0.0632284192
      7  C         0.2386167483    0.7311629425   -0.3192696792
      8  O         0.9857018551   -2.8572614937    0.2085140898
      9  O        -1.8301521552    0.5279208801    1.5484741499
     10  O        -1.0308697367   -1.8807680593   -0.1969643556
     11  C         0.3299121297   -1.8227104369    0.0130869028
     12  C        -2.1093782674    0.5992448196    0.3566651486
     13  O        -1.1383719395    0.7499839856   -0.6436744087
     14  H        -1.3233222195   -2.8159611962   -0.1300607421
     15  H         2.8448726365   -1.3235649081    0.3494022854
     16  H         0.3385144210    2.8533931553   -0.5534337196
     17  H         4.0640271075    0.8488149884    0.2986511723
     18  H         2.8007203826    2.9564187884   -0.1521182899
     19  H        -3.5243913285   -0.2722448235   -0.9737703028
     20  H        -4.2206818551    0.4301163176    0.5193795222
     21  H        -3.6693237162    1.4827124706   -0.8163932685
   Point Group: c1    Number of degrees of freedom:    57


   Energy is   -648.495380289

 Hessian Updated using BFGS Update

 55 Hessian modes will be used to form the next step
  Hessian Eigenvalues:
     0.009203    0.011028    0.011523    0.013745    0.016149    0.018389
     0.019534    0.021202    0.022150    0.022362    0.022738    0.022932
     0.022995    0.023094    0.023273    0.032217    0.072407    0.076717
     0.150771    0.159996    0.160000    0.160000    0.160490    0.164690
     0.219909    0.225677    0.232074    0.245935    0.249845    0.249991
     0.249997    0.249998    0.253848    0.296660    0.325992    0.338670
     0.342800    0.344768    0.345323    0.348964    0.351066    0.351455
     0.352182    0.413901    0.423601    0.448600    0.452082    0.457725
     0.462041    0.465716    0.486062    0.513794    0.564205    0.936499
     0.945801

 Minimum Search - Taking Simple RFO Step
 Searching for Lamda that Minimizes Along All modes
 Value Taken    Lamda =  -0.00071992
 Step Taken.  Stepsize is  0.153669

                             Maximum     Tolerance    Cnvgd?
         Gradient           0.005504      0.000300      NO
         Displacement       0.073644      0.001200      NO
         Energy change     -0.000547      0.000001      NO


 New Cartesian Coordinates Obtained by Inverse Iteration

 Displacement from previous Coordinates is:  0.314553
 ----------------------------------------------------------------
             Standard Nuclear Orientation (Angstroms)
    I     Atom           X                Y                Z
 ----------------------------------------------------------------
    1      C       2.3074059791    -0.4013162185     0.1487516561
    2      C       0.9055164751     1.9584208323    -0.3382172356
    3      C       2.9878524097     0.8137420045     0.1275858667
    4      C       2.2839326408     1.9993163519    -0.1180831193
    5      C      -3.4605967608     0.5406028498    -0.2583745177
    6      C       0.9170378473    -0.4692812634    -0.0721784038
    7      C       0.2317889042     0.7380927848    -0.3171105431
    8      O       0.9774085642    -2.8582241026     0.2024334979
    9      O      -1.8300668634     0.6260946031     1.5612793745
   10      O      -1.0351738996    -1.8917030109    -0.2170605123
   11      C       0.3281896927    -1.8266254300    -0.0287945381
   12      C      -2.1057229471     0.6323349355     0.3670403864
   13      O      -1.1396657083     0.7781349537    -0.6386472702
   14      H      -1.3099337946    -2.8280457564    -0.1256848726
   15      H       2.8277152302    -1.3335747932     0.3321888746
   16      H       0.3370290848     2.8593353543    -0.5347563053
   17      H       4.0578553221     0.8378675703     0.2998375869
   18      H       2.8019361757     2.9522117402    -0.1352240341
   19      H      -3.4889963321    -0.3217453396    -0.9311583013
   20      H      -4.2136507978     0.4387036483     0.5226360272
   21      H      -3.6630436466     1.4316734879    -0.8612014462
 ----------------------------------------------------------------
 Molecular Point Group                 C1    NOp =  1
 Largest Abelian Subgroup              C1    NOp =  1
 Nuclear Repulsion Energy =   777.6559487754 hartrees
 There are       47 alpha and       47 beta electrons
 Applying Cartesian multipole field
    Component          Value
    ---------          -----
     (2,0,0)        1.00000E-11
     (0,2,0)        2.00000E-11
     (0,0,2)       -3.00000E-11
 Nucleus-field energy     =     0.0000000248 hartrees
 Requested basis set is 6-31G
 There are 55 shells and 133 basis functions
 A cutoff of  1.0D-11 yielded   1242 shell pairs
 There are      8199 function pairs
 Smallest overlap matrix eigenvalue = 5.51E-04
 Guess MOs from SCF MO coefficient file
 Reading MOs from coefficient file
 Reading MOs from coefficient file
 A restricted hybrid HF-DFT SCF calculation will be
 performed using Pulay DIIS extrapolation
 Exchange:     0.2000 Hartree-Fock + 0.0800 Slater + 0.7200 Becke88
 Correlation:  0.8100 LYP + 0.1900 VWN1RPA
 Using SG-1 standard quadrature grid
 SCF converges when DIIS error is below 1.0E-08
Geometry optimization detected.  Setting ReadMinima to 0
Setting SaveMinima to 0
 CPU 0.00 s  wall 0.00 s
 CPU 3.85 s  wall 3.85 s

 Total DFTman time = 3.85 CPUs 3.85 Wall
 ---------------------------------------
  Cycle       Energy         DIIS Error
 ---------------------------------------
    1    -648.4944576210      1.62E-03
 CPU 0.00 s  wall 0.00 s
 CPU 1.84 s  wall 1.84 s

 Total DFTman time = 1.84 CPUs 1.84 Wall
    2    -648.4953801549      1.15E-04
 CPU 0.00 s  wall 0.00 s
 CPU 1.81 s  wall 1.81 s

 Total DFTman time = 1.81 CPUs 1.81 Wall
    3    -648.4953953679      1.39E-04
 CPU 0.00 s  wall 0.00 s
 CPU 1.78 s  wall 1.78 s

 Total DFTman time = 1.78 CPUs 1.78 Wall
    4    -648.4954387387      5.22E-05
 CPU 0.00 s  wall 0.00 s
 CPU 1.75 s  wall 1.75 s

 Total DFTman time = 1.75 CPUs 1.75 Wall
    5    -648.4954432806      2.51E-05
 CPU 0.00 s  wall 0.00 s
 CPU 1.72 s  wall 1.72 s

 Total DFTman time = 1.72 CPUs 1.72 Wall
    6    -648.4954442543      1.03E-05
 CPU 0.00 s  wall 0.00 s
 CPU 1.69 s  wall 1.70 s

 Total DFTman time = 1.69 CPUs 1.70 Wall
    7    -648.4954444700      1.89E-06
 CPU 0.00 s  wall 0.00 s
 CPU 1.65 s  wall 1.65 s

 Total DFTman time = 1.65 CPUs 1.65 Wall
    8    -648.4954444753      1.15E-06
 CPU 0.00 s  wall 0.00 s
 CPU 1.60 s  wall 1.60 s

 Total DFTman time = 1.60 CPUs 1.60 Wall
    9    -648.4954444775      3.55E-07
 CPU 0.00 s  wall 0.00 s
 CPU 1.55 s  wall 1.55 s

 Total DFTman time = 1.55 CPUs 1.55 Wall
   10    -648.4954444780      1.27E-07
 CPU 0.00 s  wall 0.00 s
 CPU 1.46 s  wall 1.47 s

 Total DFTman time = 1.46 CPUs 1.47 Wall
   11    -648.4954444785      4.32E-08
 CPU 0.00 s  wall 0.00 s
 CPU 1.38 s  wall 1.39 s

 Total DFTman time = 1.38 CPUs 1.39 Wall
   12    -648.4954444771      8.43E-09 Convergence criterion met
 ---------------------------------------
 SCF time:  CPU 36.32 s  wall 36.36 s
 SCF   energy in the final basis set = -648.4954444771
 Total energy in the final basis set = -648.4954444771
 Analysis of SCF Wavefunction
 
 --------------------------------------------------------------
 
                    Orbital Energies (a.u.)
 --------------------------------------------------------------
 
 Alpha MOs
 -- Occupied --
-19.203 -19.199 -19.151 -19.151 -10.342 -10.336 -10.276 -10.226
-10.214 -10.210 -10.208 -10.206 -10.198  -1.125  -1.115  -1.040
 -1.031  -0.883  -0.792  -0.787  -0.751  -0.684  -0.648  -0.614
 -0.592  -0.533  -0.510  -0.498  -0.487  -0.475  -0.472  -0.460
 -0.455  -0.451  -0.418  -0.409  -0.404  -0.394  -0.383  -0.369
 -0.364  -0.326  -0.312  -0.289  -0.285  -0.274  -0.262
 -- Virtual --
 -0.065  -0.019  -0.007   0.038   0.060   0.085   0.111   0.129
  0.141   0.149   0.160   0.167   0.173   0.184   0.216   0.229
  0.239   0.269   0.280   0.313   0.317   0.338   0.358   0.392
  0.491   0.499   0.512   0.532   0.535   0.543   0.563   0.575
  0.582   0.588   0.600   0.618   0.621   0.628   0.635   0.644
  0.647   0.662   0.673   0.686   0.720   0.751   0.778   0.807
  0.817   0.828   0.853   0.859   0.871   0.883   0.902   0.922
  0.930   0.946   0.953   0.959   0.979   0.990   0.997   1.030
  1.038   1.050   1.091   1.113   1.121   1.158   1.160   1.205
  1.209   1.255   1.292   1.328   1.426   1.448   1.483   1.506
  1.580   1.779   1.829   1.908   2.056   2.104
 --------------------------------------------------------------
 
          Ground-State Mulliken Net Atomic Charges

     Atom                 Charge (a.u.)
  ----------------------------------------
      1 C                    -0.161640
      2 C                    -0.108928
      3 C                    -0.115016
      4 C                    -0.120495
      5 C                    -0.458234
      6 C                     0.114765
      7 C                     0.256935
      8 O                    -0.409859
      9 O                    -0.397146
     10 O                    -0.564029
     11 C                     0.435092
     12 C                     0.529091
     13 O                    -0.550026
     14 H                     0.391259
     15 H                     0.180521
     16 H                     0.148958
     17 H                     0.141590
     18 H                     0.144225
     19 H                     0.189345
     20 H                     0.174007
     21 H                     0.179583
  ----------------------------------------
  Sum of atomic charges =    -0.000000

 -----------------------------------------------------------------
                    Cartesian Multipole Moments
 -----------------------------------------------------------------
    Charge (ESU x 10^10)
                -0.0000
    Dipole Moment (Debye)
         X      -0.5392      Y       1.6070      Z      -1.9030
       Tot       2.5484
    Quadrupole Moments (Debye-Ang)
        XX     -60.0622     XY       8.8208     YY     -70.3537
        XZ       3.8827     YZ      -0.6699     ZZ     -81.2199
    Octopole Moments (Debye-Ang^2)
       XXX     -20.2293    XXY       4.3929    XYY     -25.5805
       YYY      10.3588    XXZ      -5.8463    XYZ       3.0528
       YYZ      -8.6000    XZZ       0.2673    YZZ     -12.0126
       ZZZ     -12.1740
    Hexadecapole Moments (Debye-Ang^3)
      XXXX   -1532.2979   XXXY      -6.3233   XXYY    -422.6042
      XYYY      90.1993   YYYY    -990.0213   XXXZ      43.7086
      XXYZ      -0.1791   XYYZ       3.5913   YYYZ      20.5028
      XXZZ    -349.5353   XYZZ      -6.6004   YYZZ    -205.0364
      XZZZ      29.4634   YZZZ      10.3117   ZZZZ    -206.5828
 -----------------------------------------------------------------
 Calculating analytic gradient of the SCF energy
 Gradient of Coulomb and Exchange Energy
            1           2           3           4           5           6
    1 -11.0146908   0.1797230 -13.1903587  -8.3527251   9.7831558  -0.1954400
    2   5.0695904 -13.2162112  -1.9822432 -11.2451876  -1.2623714   6.6235831
    3  -1.9208278   2.4017321  -1.6487057   0.3051222   1.1113227   0.2920033
            7           8           9          10          11          12
    1   1.1566658 -11.9253666   1.4748392  12.2361140   3.1647756   9.2644022
    2  -2.5821748  24.9239313  -2.8232662   4.6429828  -0.3934336  -1.4923554
    3   1.5411113  -4.1387836 -27.3767604   3.6836649   1.8594121   8.5969453
           13          14          15          16          17          18
    1   7.5306183   2.3790136  -3.6688866   2.6528136  -5.7173237  -2.8852603
    2  -6.6652093   6.1285195   4.9617872  -5.5922169  -0.2692030  -5.0093184
    3  13.3021383  -0.4218749  -1.0634313   1.2607260  -0.8822834   0.1018944
           19          20          21
    1   1.2460473   4.0325976   1.8492859
    2   3.7427220   0.3434093  -3.9033347
    3   3.2956919  -3.0840442   2.7849468
 CPU 0.00 s  wall 0.00 s
 CPU 3.54 s  wall 3.54 s

 Total DFTman time = 3.54 CPUs 3.54 Wall
 Gradient of SCF Energy
            1           2           3           4           5           6
    1   0.0000528  -0.0015186   0.0000198   0.0001758   0.0009543  -0.0008635
    2  -0.0001373  -0.0000144   0.0001876  -0.0002598   0.0007711  -0.0001584
    3   0.0002129  -0.0000216  -0.0000722  -0.0002555  -0.0000841   0.0015324
            7           8           9          10          11          12
    1   0.0003579   0.0001710  -0.0004165  -0.0002097  -0.0008279   0.0018878
    2   0.0009624  -0.0003624   0.0011093  -0.0008442  -0.0019126  -0.0019852
    3   0.0009497   0.0022065   0.0006716   0.0015343  -0.0054186  -0.0009323
           13          14          15          16          17          18
    1  -0.0015658   0.0016923  -0.0005003  -0.0000899  -0.0001410  -0.0002668
    2   0.0010284   0.0016507  -0.0001093  -0.0000061  -0.0000163   0.0000244
    3   0.0000463   0.0001776  -0.0002179   0.0000446  -0.0000499   0.0000228
           19          20          21
    1   0.0003435   0.0007052   0.0000395
    2   0.0002553   0.0000160  -0.0001989
    3  -0.0004260   0.0003829  -0.0003039
 Max gradient component =       5.419E-03
 RMS gradient           =       1.069E-03
 Gradient time:  CPU 11.50 s  wall 11.51 s
 Geometry Optimization Parameters
   NAtoms,    NIC,     NZ,  NCons,   NDum,   NFix, NCnnct, MaxDiis
       21     135       0       0       0       0       0       0

 Cartesian Hessian Update
 Hessian Updated using BFGS Update


** GEOMETRY OPTIMIZATION IN DELOCALIZED INTERNAL COORDINATES **
   Searching for a Minimum

   Optimization Cycle:   4

                       Coordinates (Angstroms)
     ATOM                X               Y               Z
      1  C         2.3074059791   -0.4013162185    0.1487516561
      2  C         0.9055164751    1.9584208323   -0.3382172356
      3  C         2.9878524097    0.8137420045    0.1275858667
      4  C         2.2839326408    1.9993163519   -0.1180831193
      5  C        -3.4605967608    0.5406028498   -0.2583745177
      6  C         0.9170378473   -0.4692812634   -0.0721784038
      7  C         0.2317889042    0.7380927848   -0.3171105431
      8  O         0.9774085642   -2.8582241026    0.2024334979
      9  O        -1.8300668634    0.6260946031    1.5612793745
     10  O        -1.0351738996   -1.8917030109   -0.2170605123
     11  C         0.3281896927   -1.8266254300   -0.0287945381
     12  C        -2.1057229471    0.6323349355    0.3670403864
     13  O        -1.1396657083    0.7781349537   -0.6386472702
     14  H        -1.3099337946   -2.8280457564   -0.1256848726
     15  H         2.8277152302   -1.3335747932    0.3321888746
     16  H         0.3370290848    2.8593353543   -0.5347563053
     17  H         4.0578553221    0.8378675703    0.2998375869
     18  H         2.8019361757    2.9522117402   -0.1352240341
     19  H        -3.4889963321   -0.3217453396   -0.9311583013
     20  H        -4.2136507978    0.4387036483    0.5226360272
     21  H        -3.6630436466    1.4316734879   -0.8612014462
   Point Group: c1    Number of degrees of freedom:    57


   Energy is   -648.495444477

 Hessian Updated using BFGS Update

 56 Hessian modes will be used to form the next step
  Hessian Eigenvalues:
     0.009080    0.011356    0.011536    0.014069    0.016295    0.018511
     0.021186    0.021682    0.022160    0.022530    0.022732    0.022942
     0.023050    0.023094    0.023274    0.042975    0.072951    0.076718
     0.155240    0.159403    0.159997    0.160000    0.160000    0.160022
     0.168276    0.219970    0.224838    0.238874    0.244109    0.247634
     0.249849    0.249996    0.249998    0.275483    0.297170    0.324491
     0.342079    0.343259    0.344772    0.345323    0.348757    0.351037
     0.351448    0.352186    0.414458    0.419049    0.448687    0.456021
     0.457446    0.462964    0.465729    0.485320    0.514936    0.571055
     0.934974    0.943941

 Minimum Search - Taking Simple RFO Step
 Searching for Lamda that Minimizes Along All modes
 Value Taken    Lamda =  -0.00043932
 Step Taken.  Stepsize is  0.102327

                             Maximum     Tolerance    Cnvgd?
         Gradient           0.005002      0.000300      NO
         Displacement       0.044272      0.001200      NO
         Energy change     -0.000064      0.000001      NO


 New Cartesian Coordinates Obtained by Inverse Iteration

 Displacement from previous Coordinates is:  0.232560
 ----------------------------------------------------------------
             Standard Nuclear Orientation (Angstroms)
    I     Atom           X                Y                Z
 ----------------------------------------------------------------
    1      C       2.3066875515    -0.3995498970     0.1678714232
    2      C       0.9127689899     1.9557798443    -0.3549154836
    3      C       2.9897911591     0.8135232629     0.1383622106
    4      C       2.2898411267     1.9970317460    -0.1259528791
    5      C      -3.4678756885     0.5355429480    -0.2417501418
    6      C       0.9172453227    -0.4671827703    -0.0620112318
    7      C       0.2332564567     0.7377240358    -0.3211315276
    8      O       0.9740034945    -2.8564946965     0.2021840439
    9      O      -1.8254164980     0.6473278170     1.5661124917
   10      O      -1.0288702735    -1.8932462744    -0.2645518295
   11      C       0.3252665496    -1.8222865726    -0.0153960767
   12      C      -2.1081928530     0.6525900720     0.3738415834
   13      O      -1.1409020008     0.7784219396    -0.6366852401
   14      H      -1.3107261094    -2.8311011562    -0.1967429055
   15      H       2.8265051420    -1.3295696986     0.3653286642
   16      H       0.3481232972     2.8564629811    -0.5632480224
   17      H       4.0588646381     0.8377598949     0.3175027198
   18      H       2.8107788681     2.9483233984    -0.1506181863
   19      H      -3.4926703615    -0.3390110117    -0.8986311400
   20      H      -4.2185427656     0.4389025724     0.5426150611
   21      H      -3.6831184704     1.4150667667    -0.8569213628
 ----------------------------------------------------------------
 Molecular Point Group                 C1    NOp =  1
 Largest Abelian Subgroup              C1    NOp =  1
 Nuclear Repulsion Energy =   777.0001046164 hartrees
 There are       47 alpha and       47 beta electrons
 Applying Cartesian multipole field
    Component          Value
    ---------          -----
     (2,0,0)        1.00000E-11
     (0,2,0)        2.00000E-11
     (0,0,2)       -3.00000E-11
 Nucleus-field energy     =     0.0000000248 hartrees
 Requested basis set is 6-31G
 There are 55 shells and 133 basis functions
 A cutoff of  1.0D-11 yielded   1242 shell pairs
 There are      8199 function pairs
 Smallest overlap matrix eigenvalue = 5.50E-04
 Guess MOs from SCF MO coefficient file
 Reading MOs from coefficient file
 Reading MOs from coefficient file
 A restricted hybrid HF-DFT SCF calculation will be
 performed using Pulay DIIS extrapolation
 Exchange:     0.2000 Hartree-Fock + 0.0800 Slater + 0.7200 Becke88
 Correlation:  0.8100 LYP + 0.1900 VWN1RPA
 Using SG-1 standard quadrature grid
 SCF converges when DIIS error is below 1.0E-08
Geometry optimization detected.  Setting ReadMinima to 0
Setting SaveMinima to 0
 CPU 0.00 s  wall 0.00 s
 CPU 3.85 s  wall 3.85 s

 Total DFTman time = 3.85 CPUs 3.85 Wall
 ---------------------------------------
  Cycle       Energy         DIIS Error
 ---------------------------------------
    1    -648.4903342295      1.08E-03
 CPU 0.00 s  wall 0.00 s
 CPU 1.82 s  wall 1.82 s

 Total DFTman time = 1.82 CPUs 1.82 Wall
    2    -648.4955327379      7.44E-05
 CPU 0.00 s  wall 0.00 s
 CPU 1.78 s  wall 1.78 s

 Total DFTman time = 1.78 CPUs 1.78 Wall
    3    -648.4955369194      1.07E-04
 CPU 0.00 s  wall 0.00 s
 CPU 1.75 s  wall 1.75 s

 Total DFTman time = 1.75 CPUs 1.75 Wall
    4    -648.4955564712      2.78E-05
 CPU 0.00 s  wall 0.00 s
 CPU 1.73 s  wall 1.73 s

 Total DFTman time = 1.73 CPUs 1.73 Wall
    5    -648.4955571046      2.20E-05
 CPU 0.00 s  wall 0.00 s
 CPU 1.70 s  wall 1.70 s

 Total DFTman time = 1.70 CPUs 1.70 Wall
    6    -648.4955579512      3.26E-06
 CPU 0.00 s  wall 0.00 s
 CPU 1.66 s  wall 1.67 s

 Total DFTman time = 1.66 CPUs 1.67 Wall
    7    -648.4955579737      1.21E-06
 CPU 0.00 s  wall 0.00 s
 CPU 1.62 s  wall 1.62 s

 Total DFTman time = 1.62 CPUs 1.62 Wall
    8    -648.4955579769      6.48E-07
 CPU 0.00 s  wall 0.00 s
 CPU 1.58 s  wall 1.58 s

 Total DFTman time = 1.58 CPUs 1.58 Wall
    9    -648.4955579779      1.84E-07
 CPU 0.00 s  wall 0.00 s
 CPU 1.52 s  wall 1.52 s

 Total DFTman time = 1.52 CPUs 1.52 Wall
   10    -648.4955579783      1.04E-07
 CPU 0.00 s  wall 0.00 s
 CPU 1.43 s  wall 1.43 s

 Total DFTman time = 1.43 CPUs 1.43 Wall
   11    -648.4955579780      2.98E-08
 CPU 0.00 s  wall 0.00 s
 CPU 1.34 s  wall 1.34 s

 Total DFTman time = 1.34 CPUs 1.34 Wall
   12    -648.4955579767      6.11E-09 Convergence criterion met
 ---------------------------------------
 SCF time:  CPU 35.68 s  wall 35.71 s
 SCF   energy in the final basis set = -648.4955579767
 Total energy in the final basis set = -648.4955579767
 Analysis of SCF Wavefunction
 
 --------------------------------------------------------------
 
                    Orbital Energies (a.u.)
 --------------------------------------------------------------
 
 Alpha MOs
 -- Occupied --
-19.202 -19.199 -19.151 -19.151 -10.342 -10.337 -10.276 -10.226
-10.214 -10.210 -10.208 -10.206 -10.198  -1.124  -1.115  -1.040
 -1.030  -0.883  -0.792  -0.786  -0.751  -0.684  -0.648  -0.614
 -0.592  -0.533  -0.510  -0.498  -0.486  -0.474  -0.471  -0.460
 -0.454  -0.451  -0.418  -0.409  -0.403  -0.394  -0.383  -0.370
 -0.364  -0.325  -0.312  -0.288  -0.285  -0.274  -0.262
 -- Virtual --
 -0.065  -0.019  -0.007   0.039   0.059   0.084   0.111   0.128
  0.140   0.150   0.159   0.167   0.173   0.184   0.215   0.228
  0.239   0.269   0.280   0.312   0.317   0.337   0.359   0.392
  0.492   0.499   0.510   0.533   0.536   0.543   0.563   0.574
  0.581   0.587   0.599   0.618   0.621   0.629   0.634   0.643
  0.648   0.662   0.674   0.686   0.718   0.751   0.778   0.808
  0.816   0.827   0.854   0.859   0.874   0.883   0.902   0.921
  0.930   0.946   0.955   0.959   0.979   0.990   0.994   1.028
  1.037   1.049   1.090   1.114   1.120   1.155   1.159   1.206
  1.210   1.255   1.293   1.328   1.423   1.446   1.483   1.499
  1.579   1.779   1.827   1.905   2.056   2.105
 --------------------------------------------------------------
 
          Ground-State Mulliken Net Atomic Charges

     Atom                 Charge (a.u.)
  ----------------------------------------
      1 C                    -0.160232
      2 C                    -0.110262
      3 C                    -0.115667
      4 C                    -0.119494
      5 C                    -0.457821
      6 C                     0.113731
      7 C                     0.258946
      8 O                    -0.409773
      9 O                    -0.396282
     10 O                    -0.565149
     11 C                     0.434661
     12 C                     0.527175
     13 O                    -0.549898
     14 H                     0.391096
     15 H                     0.180454
     16 H                     0.148589
     17 H                     0.141708
     18 H                     0.144309
     19 H                     0.190455
     20 H                     0.174477
     21 H                     0.178976
  ----------------------------------------
  Sum of atomic charges =    -0.000000

 -----------------------------------------------------------------
                    Cartesian Multipole Moments
 -----------------------------------------------------------------
    Charge (ESU x 10^10)
                 0.0000
    Dipole Moment (Debye)
         X      -0.5710      Y       1.6014      Z      -1.8973
       Tot       2.5476
    Quadrupole Moments (Debye-Ang)
        XX     -59.8063     XY       8.8731     YY     -70.4083
        XZ       3.9089     YZ      -0.6278     ZZ     -81.2428
    Octopole Moments (Debye-Ang^2)
       XXX     -21.1077    XXY       4.1513    XYY     -25.6060
       YYY       9.5922    XXZ      -5.6298    XYZ       2.6952
       YYZ      -9.5981    XZZ       0.3231    YZZ     -12.2891
       ZZZ     -12.2895
    Hexadecapole Moments (Debye-Ang^3)
      XXXX   -1531.5818   XXXY      -5.8085   XXYY    -422.6946
      XYYY      90.6122   YYYY    -989.9346   XXXZ      43.7739
      XXYZ      -0.3568   XYYZ       4.5208   YYYZ      21.2861
      XXZZ    -350.1858   XYZZ      -6.2675   YYZZ    -205.2017
      XZZZ      28.9508   YZZZ       8.7623   ZZZZ    -208.8315
 -----------------------------------------------------------------
 Calculating analytic gradient of the SCF energy
 Gradient of Coulomb and Exchange Energy
            1           2           3           4           5           6
    1 -10.9453902   0.1350890 -13.2108867  -8.3622135   9.7587446  -0.2403469
    2   5.0646671 -13.1069615  -1.9774157 -11.2284478  -1.1407434   6.6029810
    3  -2.0630912   2.6480359  -1.7535338   0.3829918   0.9977424   0.2937416
            7           8           9          10          11          12
    1   1.1699622 -11.8842493   1.3212034  12.0958831   3.2870457   9.3467895
    2  -2.5948885  24.9709433  -2.8785408   4.6799471  -0.5425955  -1.8294482
    3   1.5932625  -4.0395261 -27.2889777   4.1834150   1.1521040   8.6259676
           13          14          15          16          17          18
    1   7.5599776   2.4453495  -3.6771007   2.6278490  -5.7112434  -2.9055072
    2  -6.5163794   6.0984989   4.9412155  -5.5805472  -0.2711832  -4.9950924
    3  13.1674316  -0.2447115  -1.1539336   1.3338831  -0.9190901   0.1408609
           19          20          21
    1   1.2595755   4.0387362   1.8907327
    2   3.8133440   0.3341756  -3.8435289
    3   3.2135211  -3.0768151   2.8067218
 CPU 0.00 s  wall 0.00 s
 CPU 3.53 s  wall 3.53 s

 Total DFTman time = 3.53 CPUs 3.53 Wall
 Gradient of SCF Energy
            1           2           3           4           5           6
    1   0.0000945  -0.0007111  -0.0000902   0.0003695   0.0000695   0.0000254
    2   0.0001239  -0.0000905   0.0002535  -0.0003216  -0.0009120  -0.0002551
    3   0.0001079  -0.0002182  -0.0000189   0.0001004   0.0002885  -0.0006458
            7           8           9          10          11          12
    1   0.0003407  -0.0000770  -0.0002315   0.0009906  -0.0008339   0.0006661
    2  -0.0000305  -0.0001884  -0.0000909  -0.0011834   0.0004662   0.0022837
    3   0.0001948  -0.0010833   0.0000072  -0.0010227   0.0023932  -0.0002533
           13          14          15          16          17          18
    1  -0.0005778   0.0000364  -0.0000281  -0.0000244   0.0000130  -0.0000315
    2  -0.0001733   0.0002662  -0.0000815  -0.0000206   0.0000287   0.0000180
    3   0.0002361   0.0001228  -0.0000342   0.0000523  -0.0000708   0.0000643
           19          20          21
    1  -0.0001789  -0.0000085   0.0001874
    2   0.0000998  -0.0001504  -0.0000418
    3  -0.0002707  -0.0000269   0.0000772
 Max gradient component =       2.393E-03
 RMS gradient           =       5.670E-04
 Gradient time:  CPU 11.43 s  wall 12.00 s
 Geometry Optimization Parameters
   NAtoms,    NIC,     NZ,  NCons,   NDum,   NFix, NCnnct, MaxDiis
       21     135       0       0       0       0       0       0

 Cartesian Hessian Update
 Hessian Updated using BFGS Update


** GEOMETRY OPTIMIZATION IN DELOCALIZED INTERNAL COORDINATES **
   Searching for a Minimum

   Optimization Cycle:   5

                       Coordinates (Angstroms)
     ATOM                X               Y               Z
      1  C         2.3066875515   -0.3995498970    0.1678714232
      2  C         0.9127689899    1.9557798443   -0.3549154836
      3  C         2.9897911591    0.8135232629    0.1383622106
      4  C         2.2898411267    1.9970317460   -0.1259528791
      5  C        -3.4678756885    0.5355429480   -0.2417501418
      6  C         0.9172453227   -0.4671827703   -0.0620112318
      7  C         0.2332564567    0.7377240358   -0.3211315276
      8  O         0.9740034945   -2.8564946965    0.2021840439
      9  O        -1.8254164980    0.6473278170    1.5661124917
     10  O        -1.0288702735   -1.8932462744   -0.2645518295
     11  C         0.3252665496   -1.8222865726   -0.0153960767
     12  C        -2.1081928530    0.6525900720    0.3738415834
     13  O        -1.1409020008    0.7784219396   -0.6366852401
     14  H        -1.3107261094   -2.8311011562   -0.1967429055
     15  H         2.8265051420   -1.3295696986    0.3653286642
     16  H         0.3481232972    2.8564629811   -0.5632480224
     17  H         4.0588646381    0.8377598949    0.3175027198
     18  H         2.8107788681    2.9483233984   -0.1506181863
     19  H        -3.4926703615   -0.3390110117   -0.8986311400
     20  H        -4.2185427656    0.4389025724    0.5426150611
     21  H        -3.6831184704    1.4150667667   -0.8569213628
   Point Group: c1    Number of degrees of freedom:    57


   Energy is   -648.495557977

 Hessian Updated using BFGS Update

 57 Hessian modes will be used to form the next step
  Hessian Eigenvalues:
     0.008948    0.011470    0.011700    0.014074    0.017221    0.018777
     0.021189    0.022140    0.022346    0.022728    0.022925    0.022989
     0.023093    0.023272    0.028410    0.058617    0.072474    0.076858
     0.152197    0.158691    0.159997    0.160000    0.160000    0.160004
     0.161212    0.166514    0.219852    0.224979    0.231606    0.243517
     0.248052    0.249994    0.249998    0.250134    0.251320    0.289782
     0.326665    0.336190    0.342764    0.344774    0.345344    0.348794
     0.351027    0.351439    0.352192    0.413743    0.419336    0.447843
     0.450909    0.457576    0.460896    0.465779    0.480011    0.511828
     0.560456    0.934776    0.943840

 Minimum Search - Taking Simple RFO Step
 Searching for Lamda that Minimizes Along All modes
 Value Taken    Lamda =  -0.00030132
 Step Taken.  Stepsize is  0.098727

                             Maximum     Tolerance    Cnvgd?
         Gradient           0.002591      0.000300      NO
         Displacement       0.067145      0.001200      NO
         Energy change     -0.000113      0.000001      NO


 New Cartesian Coordinates Obtained by Inverse Iteration

 Displacement from previous Coordinates is:  0.380160
 ----------------------------------------------------------------
             Standard Nuclear Orientation (Angstroms)
    I     Atom           X                Y                Z
 ----------------------------------------------------------------
    1      C       2.3127867335    -0.3937490822     0.1668706014
    2      C       0.9182802601     1.9593099876    -0.3641023604
    3      C       2.9953945269     0.8195627133     0.1347778052
    4      C       2.2950093828     2.0020622508    -0.1335825178
    5      C      -3.4730185848     0.5422061582    -0.2500799679
    6      C       0.9236541340    -0.4611022209    -0.0642721682
    7      C       0.2381570040     0.7406280726    -0.3279830923
    8      O       0.9639537616    -2.8473021924     0.2241701932
    9      O      -1.8184091878     0.5105261696     1.5505231970
   10      O      -1.0366227593    -1.8686332300    -0.2303546002
   11      C       0.3231950043    -1.8112298935    -0.0054747968
   12      C      -2.1060280452     0.5923840253     0.3623062286
   13      O      -1.1379748715     0.7732428095    -0.6414133368
   14      H      -1.3332477515    -2.8025763246    -0.1539233851
   15      H       2.8342414973    -1.3213513062     0.3717918314
   16      H       0.3547499444     2.8597271932    -0.5767791523
   17      H       4.0640759365     0.8449404028     0.3168556378
   18      H       2.8163549701     2.9531604940    -0.1611615751
   19      H      -3.5224088936    -0.2949193378    -0.9525101975
   20      H      -4.2227619099     0.4189341447     0.5317823108
   21      H      -3.6725635766     1.4601943676    -0.8121784845
 ----------------------------------------------------------------
 Molecular Point Group                 C1    NOp =  1
 Largest Abelian Subgroup              C1    NOp =  1
 Nuclear Repulsion Energy =   778.4607467822 hartrees
 There are       47 alpha and       47 beta electrons
 Applying Cartesian multipole field
    Component          Value
    ---------          -----
     (2,0,0)        1.00000E-11
     (0,2,0)        2.00000E-11
     (0,0,2)       -3.00000E-11
 Nucleus-field energy     =     0.0000000247 hartrees
 Requested basis set is 6-31G
 There are 55 shells and 133 basis functions
 A cutoff of  1.0D-11 yielded   1243 shell pairs
[...]
     0.607131    0.922866    0.947844

 Minimum Search - Taking Simple RFO Step
 Searching for Lamda that Minimizes Along All modes
 Value Taken    Lamda =   0.00000000
 Step Taken.  Stepsize is  0.008920

                             Maximum     Tolerance    Cnvgd?
         Gradient           0.000079      0.000300     YES
         Displacement       0.003624      0.001200      NO
         Energy change     -0.000001      0.000001      NO


 New Cartesian Coordinates Obtained by Inverse Iteration

 Displacement from previous Coordinates is:  0.016605
 ----------------------------------------------------------------
             Standard Nuclear Orientation (Angstroms)
    I     Atom           X                Y                Z
 ----------------------------------------------------------------
    1      C       2.3006893819    -0.3888583262     0.1783146698
    2      C       0.9262952282     1.9714111147    -0.3693836721
    3      C       2.9950913237     0.8169329762     0.1287849499
    4      C       2.3048326191     2.0030083657    -0.1513510053
    5      C      -3.4668134803     0.5313463083    -0.2380318242
    6      C       0.9104659396    -0.4475308228    -0.0486210866
    7      C       0.2344488551     0.7600398469    -0.3159504637
    8      O       0.9318301819    -2.8246281338     0.3130886861
    9      O      -1.8181996652     0.4440883821     1.5658488365
   10      O      -1.0285458524    -1.8681205878    -0.3257750519
   11      C       0.3084218475    -1.7971947696     0.0093098768
   12      C      -2.1055258093     0.5783031674     0.3826209232
   13      O      -1.1420192157     0.8220387437    -0.6123991362
   14      H      -1.3227742331    -2.8010147626    -0.2413263835
   15      H       2.8126550862    -1.3201252031     0.3895005039
   16      H       0.3674454238     2.8743459409    -0.5837430335
   17      H       4.0647827262     0.8337832549     0.3049665767
   18      H       2.8347658574     2.9486442845    -0.1949361058
   19      H      -3.5238687527    -0.3363583588    -0.9032257879
   20      H      -4.2237494957     0.4516075506     0.5423012168
   21      H      -3.6434103909     1.4242962305    -0.8447305183
 ----------------------------------------------------------------
 Molecular Point Group                 C1    NOp =  1
 Largest Abelian Subgroup              C1    NOp =  1
 Nuclear Repulsion Energy =   778.6966206284 hartrees
 There are       47 alpha and       47 beta electrons
 Applying Cartesian multipole field
    Component          Value
    ---------          -----
     (2,0,0)        1.00000E-11
     (0,2,0)        2.00000E-11
     (0,0,2)       -3.00000E-11
 Nucleus-field energy     =     0.0000000244 hartrees
 Requested basis set is 6-31G
 There are 55 shells and 133 basis functions
 A cutoff of  1.0D-11 yielded   1243 shell pairs
 There are      8200 function pairs
 Smallest overlap matrix eigenvalue = 5.52E-04
 Guess MOs from SCF MO coefficient file
 Reading MOs from coefficient file
 Reading MOs from coefficient file
 A restricted hybrid HF-DFT SCF calculation will be
 performed using Pulay DIIS extrapolation
 Exchange:     0.2000 Hartree-Fock + 0.0800 Slater + 0.7200 Becke88
 Correlation:  0.8100 LYP + 0.1900 VWN1RPA
 Using SG-1 standard quadrature grid
 SCF converges when DIIS error is below 1.0E-08
Geometry optimization detected.  Setting ReadMinima to 0
Setting SaveMinima to 0
 CPU 0.00 s  wall 0.00 s
 CPU 3.87 s  wall 3.87 s

 Total DFTman time = 3.87 CPUs 3.87 Wall
 ---------------------------------------
  Cycle       Energy         DIIS Error
 ---------------------------------------
    1    -648.4957493520      5.06E-05
 CPU 0.00 s  wall 0.00 s
 CPU 1.73 s  wall 1.73 s

 Total DFTman time = 1.73 CPUs 1.73 Wall
    2    -648.4957235872      7.15E-06
 CPU 0.00 s  wall 0.00 s
 CPU 1.71 s  wall 1.71 s

 Total DFTman time = 1.71 CPUs 1.71 Wall
    3    -648.4957232682      1.62E-05
 CPU 0.00 s  wall 0.00 s
 CPU 1.69 s  wall 1.69 s

 Total DFTman time = 1.69 CPUs 1.69 Wall
    4    -648.4957237275      1.25E-06
 CPU 0.00 s  wall 0.00 s
 CPU 1.65 s  wall 1.65 s

 Total DFTman time = 1.65 CPUs 1.65 Wall
    5    -648.4957237292      8.61E-07
 CPU 0.00 s  wall 0.00 s
 CPU 1.61 s  wall 1.61 s

 Total DFTman time = 1.61 CPUs 1.61 Wall
    6    -648.4957237304      3.96E-07
 CPU 0.00 s  wall 0.00 s
 CPU 1.54 s  wall 1.54 s

 Total DFTman time = 1.54 CPUs 1.54 Wall
    7    -648.4957237318      1.02E-07
 CPU 0.00 s  wall 0.00 s
 CPU 1.44 s  wall 1.44 s

 Total DFTman time = 1.44 CPUs 1.44 Wall
    8    -648.4957237307      4.61E-08
 CPU 0.00 s  wall 0.00 s
 CPU 1.34 s  wall 1.34 s

 Total DFTman time = 1.34 CPUs 1.34 Wall
    9    -648.4957237306      9.17E-09 Convergence criterion met
 ---------------------------------------
 SCF time:  CPU 26.75 s  wall 26.77 s
 SCF   energy in the final basis set = -648.4957237306
 Total energy in the final basis set = -648.4957237306
 Analysis of SCF Wavefunction
 
 --------------------------------------------------------------
 
                    Orbital Energies (a.u.)
 --------------------------------------------------------------
 
 Alpha MOs
 -- Occupied --
-19.202 -19.199 -19.152 -19.151 -10.341 -10.337 -10.276 -10.226
-10.214 -10.210 -10.208 -10.205 -10.199  -1.123  -1.114  -1.040
 -1.030  -0.882  -0.792  -0.786  -0.751  -0.684  -0.647  -0.614
 -0.592  -0.532  -0.510  -0.499  -0.486  -0.473  -0.471  -0.460
 -0.453  -0.450  -0.418  -0.409  -0.404  -0.393  -0.384  -0.369
 -0.364  -0.325  -0.314  -0.289  -0.285  -0.273  -0.260
 -- Virtual --
 -0.064  -0.020  -0.005   0.039   0.059   0.085   0.111   0.128
  0.141   0.151   0.159   0.167   0.173   0.184   0.215   0.228
  0.241   0.269   0.281   0.312   0.316   0.337   0.359   0.394
  0.492   0.499   0.512   0.533   0.534   0.542   0.565   0.574
  0.582   0.587   0.600   0.618   0.621   0.629   0.635   0.644
  0.648   0.662   0.674   0.688   0.715   0.749   0.779   0.810
  0.813   0.827   0.854   0.860   0.874   0.883   0.903   0.920
  0.932   0.948   0.954   0.962   0.984   0.987   1.014   1.033
  1.037   1.051   1.090   1.111   1.119   1.157   1.160   1.202
  1.208   1.260   1.292   1.325   1.422   1.445   1.484   1.505
  1.585   1.777   1.827   1.909   2.063   2.104
 --------------------------------------------------------------
 
          Ground-State Mulliken Net Atomic Charges

     Atom                 Charge (a.u.)
  ----------------------------------------
      1 C                    -0.159720
      2 C                    -0.114291
      3 C                    -0.116500
      4 C                    -0.118715
      5 C                    -0.458277
      6 C                     0.116643
      7 C                     0.259030
      8 O                    -0.409124
      9 O                    -0.398249
     10 O                    -0.568226
     11 C                     0.436890
     12 C                     0.533431
     13 O                    -0.552318
     14 H                     0.391446
     15 H                     0.180109
     16 H                     0.148753
     17 H                     0.141436
     18 H                     0.143889
     19 H                     0.190547
     20 H                     0.174400
     21 H                     0.178845
  ----------------------------------------
  Sum of atomic charges =     0.000000

 -----------------------------------------------------------------
                    Cartesian Multipole Moments
 -----------------------------------------------------------------
    Charge (ESU x 10^10)
                 0.0000
    Dipole Moment (Debye)
         X      -0.5824      Y       1.7342      Z      -2.0224
       Tot       2.7270
    Quadrupole Moments (Debye-Ang)
        XX     -59.5437     XY       8.3691     YY     -70.2351
        XZ       3.5583     YZ       0.5975     ZZ     -81.3552
    Octopole Moments (Debye-Ang^2)
       XXX     -20.8447    XXY       4.2267    XYY     -24.5701
       YYY       9.9426    XXZ      -6.1947    XYZ       1.5699
       YYZ     -11.4296    XZZ       0.1584    YZZ     -10.0855
       ZZZ     -13.4568
    Hexadecapole Moments (Debye-Ang^3)
      XXXX   -1529.5922   XXXY     -19.0808   XXYY    -417.3077
      XYYY      73.2752   YYYY    -971.7231   XXXZ      41.8979
      XXYZ       6.4661   XYYZ       0.6321   YYYZ      38.8413
      XXZZ    -350.3100   XYZZ     -12.6858   YYZZ    -202.7348
      XZZZ      28.2470   YZZZ      22.3958   ZZZZ    -211.6488
 -----------------------------------------------------------------
 Calculating analytic gradient of the SCF energy
 Gradient of Coulomb and Exchange Energy
            1           2           3           4           5           6
    1 -10.9992951   0.1249043 -13.2350627  -8.4225248   9.8141914  -0.2740568
    2   5.0995522 -13.1701039  -1.9369151 -11.1930865  -1.3516581   6.4471559
    3  -1.9236574   2.7893458  -1.6871904   0.5555288   1.0069007   0.1892420
            7           8           9          10          11          12
    1   1.1198608 -11.5399687   1.4146836  11.6875572   3.1764351   9.4794609
    2  -2.5971510  24.9841207  -0.3581658   4.7298492  -0.5223855  -2.6750271
    3   1.4183601  -5.6925441 -27.4679046   5.5855181   1.7146547   8.6550626
           13          14          15          16          17          18
    1   7.6642226   2.5056524  -3.6480927   2.5926587  -5.7139673  -2.9450845
    2  -7.7900400   6.1064561   4.9581881  -5.5656986  -0.2331315  -4.9580287
    3  12.6828516  -0.2811136  -1.2118302   1.3651175  -0.9026887   0.2391427
           19          20          21
    1   1.3840270   4.0583409   1.7560577
    2   3.7531332   0.2248895  -3.9519532
    3   3.2347358  -3.0546980   2.7851666
 CPU 0.00 s  wall 0.00 s
 CPU 3.50 s  wall 3.50 s

 Total DFTman time = 3.50 CPUs 3.50 Wall
 Gradient of SCF Energy
            1           2           3           4           5           6
    1   0.0000045  -0.0000212   0.0000005   0.0000034   0.0000100  -0.0000055
    2   0.0000071   0.0000065   0.0000171  -0.0000022  -0.0000507   0.0000137
    3   0.0000007  -0.0000110  -0.0000028   0.0000016  -0.0000114   0.0000038
            7           8           9          10          11          12
    1   0.0000078  -0.0000118  -0.0000059   0.0000213   0.0000017   0.0000098
    2  -0.0000253   0.0000115  -0.0000060  -0.0000045  -0.0000306   0.0000542
    3   0.0000033   0.0000218  -0.0000077  -0.0000007  -0.0000112   0.0000130
           13          14          15          16          17          18
    1  -0.0000051   0.0000078  -0.0000011  -0.0000058  -0.0000015  -0.0000076
    2  -0.0000077   0.0000070   0.0000087  -0.0000007   0.0000099   0.0000069
    3   0.0000086   0.0000083   0.0000063  -0.0000041  -0.0000005  -0.0000055
           19          20          21
    1  -0.0000027   0.0000024  -0.0000009
    2   0.0000004  -0.0000137  -0.0000017
    3  -0.0000151  -0.0000019   0.0000045
 Max gradient component =       5.424E-05
 RMS gradient           =       1.355E-05
 Gradient time:  CPU 11.45 s  wall 11.46 s
 Geometry Optimization Parameters
   NAtoms,    NIC,     NZ,  NCons,   NDum,   NFix, NCnnct, MaxDiis
       21     135       0       0       0       0       0       0

 Cartesian Hessian Update
 Hessian Updated using BFGS Update


** GEOMETRY OPTIMIZATION IN DELOCALIZED INTERNAL COORDINATES **
   Searching for a Minimum

   Optimization Cycle:  14

                       Coordinates (Angstroms)
     ATOM                X               Y               Z
      1  C         2.3006893819   -0.3888583262    0.1783146698
      2  C         0.9262952282    1.9714111147   -0.3693836721
      3  C         2.9950913237    0.8169329762    0.1287849499
      4  C         2.3048326191    2.0030083657   -0.1513510053
      5  C        -3.4668134803    0.5313463083   -0.2380318242
      6  C         0.9104659396   -0.4475308228   -0.0486210866
      7  C         0.2344488551    0.7600398469   -0.3159504637
      8  O         0.9318301819   -2.8246281338    0.3130886861
      9  O        -1.8181996652    0.4440883821    1.5658488365
     10  O        -1.0285458524   -1.8681205878   -0.3257750519
     11  C         0.3084218475   -1.7971947696    0.0093098768
     12  C        -2.1055258093    0.5783031674    0.3826209232
     13  O        -1.1420192157    0.8220387437   -0.6123991362
     14  H        -1.3227742331   -2.8010147626   -0.2413263835
     15  H         2.8126550862   -1.3201252031    0.3895005039
     16  H         0.3674454238    2.8743459409   -0.5837430335
     17  H         4.0647827262    0.8337832549    0.3049665767
     18  H         2.8347658574    2.9486442845   -0.1949361058
     19  H        -3.5238687527   -0.3363583588   -0.9032257879
     20  H        -4.2237494957    0.4516075506    0.5423012168
     21  H        -3.6434103909    1.4242962305   -0.8447305183
   Point Group: c1    Number of degrees of freedom:    57


   Energy is   -648.495723731

 Hessian Updated using BFGS Update

 57 Hessian modes will be used to form the next step
  Hessian Eigenvalues:
     0.001046    0.003972    0.013087    0.018472    0.020136    0.021370
     0.022141    0.022498    0.022737    0.022948    0.023041    0.023183
     0.023256    0.046312    0.050542    0.064633    0.072632    0.075863
     0.155298    0.159790    0.159883    0.159988    0.160026    0.160419
     0.168834    0.169447    0.219977    0.224076    0.233845    0.242232
     0.248846    0.249717    0.250257    0.256660    0.278615    0.326768
     0.335483    0.343007    0.345188    0.345266    0.348948    0.351038
     0.351443    0.352208    0.391817    0.415281    0.429134    0.443758
     0.454704    0.459514    0.465465    0.478266    0.514261    0.563292
     0.634843    0.924082    0.947499

 Minimum Search - Taking Simple RFO Step
 Searching for Lamda that Minimizes Along All modes
 Value Taken    Lamda =   0.00000000
 Step Taken.  Stepsize is  0.010782

                             Maximum     Tolerance    Cnvgd?
         Gradient           0.000039      0.000300     YES
         Displacement       0.004576      0.001200      NO
         Energy change     -0.000000      0.000001     YES

 Final energy is   -648.495723730599     


 ******************************
 **  OPTIMIZATION CONVERGED  **
 ******************************

Z-matrix Print:
$molecule
0 1
O 
C  1 1.406349
O  2 1.224989 1 122.798953
C  1 1.409393 2 120.841496 3 -7.952939 0
C  4 1.396040 1 115.962260 2 112.271104 0
H  5 1.083307 4 118.369839 1 -2.849133 0
C  5 1.396031 4 120.200649 1 177.078859 0
H  7 1.084876 5 119.722955 4 -179.985884 0
C  7 1.400610 5 119.915521 4 0.334160 0
H  9 1.084234 7 120.368317 5 179.646357 0
C  9 1.392329 7 119.649909 5 -0.458065 0
H  11 1.083497 9 121.039220 7 -179.776164 0
C  4 1.409500 1 123.092417 2 -71.016392 0
C  13 1.478988 4 126.442623 1 2.119951 0
O  14 1.239572 13 124.143123 4 176.297377 0
O  14 1.380143 13 115.576587 4 -4.799568 0
H  16 0.981832 14 108.556777 13 179.244405 0
C  2 1.496836 1 109.581002 3 -179.435819 0
H  18 1.090060 2 109.693201 1 173.857943 0
H  18 1.093906 2 110.559395 1 52.176635 0
H  18 1.094829 2 108.916211 1 -65.792839 0
$end

 Analysis of SCF Wavefunction
 
 --------------------------------------------------------------
 
                    Orbital Energies (a.u.)
 --------------------------------------------------------------
 
 Alpha MOs
 -- Occupied --
-19.202 -19.199 -19.152 -19.151 -10.341 -10.337 -10.276 -10.226
-10.214 -10.210 -10.208 -10.205 -10.199  -1.123  -1.114  -1.040
 -1.030  -0.882  -0.792  -0.786  -0.751  -0.684  -0.647  -0.614
 -0.592  -0.532  -0.510  -0.499  -0.486  -0.473  -0.471  -0.460
 -0.453  -0.450  -0.418  -0.409  -0.404  -0.393  -0.384  -0.369
 -0.364  -0.325  -0.314  -0.289  -0.285  -0.273  -0.260
 -- Virtual --
 -0.064  -0.020  -0.005   0.039   0.059   0.085   0.111   0.128
  0.141   0.151   0.159   0.167   0.173   0.184   0.215   0.228
  0.241   0.269   0.281   0.312   0.316   0.337   0.359   0.394
  0.492   0.499   0.512   0.533   0.534   0.542   0.565   0.574
  0.582   0.587   0.600   0.618   0.621   0.629   0.635   0.644
  0.648   0.662   0.674   0.688   0.715   0.749   0.779   0.810
  0.813   0.827   0.854   0.860   0.874   0.883   0.903   0.920
  0.932   0.948   0.954   0.962   0.984   0.987   1.014   1.033
  1.037   1.051   1.090   1.111   1.119   1.157   1.160   1.202
  1.208   1.260   1.292   1.325   1.422   1.445   1.484   1.505
  1.585   1.777   1.827   1.909   2.063   2.104
 --------------------------------------------------------------
 
          Ground-State Mulliken Net Atomic Charges

     Atom                 Charge (a.u.)
  ----------------------------------------
      1 C                    -0.159720
      2 C                    -0.114291
      3 C                    -0.116500
      4 C                    -0.118715
      5 C                    -0.458277
      6 C                     0.116643
      7 C                     0.259030
      8 O                    -0.409124
      9 O                    -0.398249
     10 O                    -0.568226
     11 C                     0.436890
     12 C                     0.533431
     13 O                    -0.552318
     14 H                     0.391446
     15 H                     0.180109
     16 H                     0.148753
     17 H                     0.141436
     18 H                     0.143889
     19 H                     0.190547
     20 H                     0.174400
     21 H                     0.178845
  ----------------------------------------
  Sum of atomic charges =     0.000000

 -----------------------------------------------------------------
                    Cartesian Multipole Moments
 -----------------------------------------------------------------
    Charge (ESU x 10^10)
                 0.0000
    Dipole Moment (Debye)
         X      -0.5824      Y       1.7342      Z      -2.0224
       Tot       2.7270
    Quadrupole Moments (Debye-Ang)
        XX     -59.5437     XY       8.3691     YY     -70.2351
        XZ       3.5583     YZ       0.5975     ZZ     -81.3552
    Octopole Moments (Debye-Ang^2)
       XXX     -20.8447    XXY       4.2267    XYY     -24.5701
       YYY       9.9426    XXZ      -6.1947    XYZ       1.5699
       YYZ     -11.4296    XZZ       0.1584    YZZ     -10.0855
       ZZZ     -13.4568
    Hexadecapole Moments (Debye-Ang^3)
      XXXX   -1529.5922   XXXY     -19.0808   XXYY    -417.3077
      XYYY      73.2752   YYYY    -971.7231   XXXZ      41.8979
      XXYZ       6.4661   XYYZ       0.6321   YYYZ      38.8413
      XXZZ    -350.3100   XYZZ     -12.6858   YYZZ    -202.7348
      XZZZ      28.2470   YZZZ      22.3958   ZZZZ    -211.6488
 -----------------------------------------------------------------
Archival summary:
1\1\n52\OPT\ProcedureUnspecified\6-31G\498\erb74\SunSep2021:16:192015SunSep2021:16:192015\0\\#,OPT,ProcedureUnspecified,6-31G,\\0,1\O\C,1,1.40635\O,2,1.22499,1,122.799\C,1,1.40939,2,120.841,3,-7.95294,0\C,4,1.39604,1,115.962,2,112.271,0\H,5,1.08331,4,118.37,1,-2.84913,0\C,5,1.39603,4,120.201,1,177.079,0\H,7,1.08488,5,119.723,4,-179.986,0\C,7,1.40061,5,119.916,4,0.33416,0\H,9,1.08423,7,120.368,5,179.646,0\C,9,1.39233,7,119.65,5,-0.458065,0\H,11,1.0835,9,121.039,7,-179.776,0\C,4,1.4095,1,123.092,2,-71.0164,0\C,13,1.47899,4,126.443,1,2.11995,0\O,14,1.23957,13,124.143,4,176.297,0\O,14,1.38014,13,115.577,4,-4.79957,0\H,16,0.981832,14,108.557,13,179.244,0\C,2,1.49684,1,109.581,3,-179.436,0\H,18,1.09006,2,109.693,1,173.858,0\H,18,1.09391,2,110.559,1,52.1766,0\H,18,1.09483,2,108.916,1,-65.7928,0\\\@

 Total job time:  658.54s(wall), 655.94s(cpu) 
 Sun Sep 20 21:16:19 2015

        *************************************************************
        *                                                           *
        *  Thank you very much for using Q-Chem.  Have a nice day.  *
        *                                                           *
        *************************************************************


