
                                 *****************
                                 * O   R   C   A *
                                 *****************

           --- An Ab Initio, DFT and Semiempirical electronic structure package ---

                  ######################################################
                  #                        -***-                       #
                  #  Department of molecular theory and spectroscopy   #
                  #              Directorship: Frank Neese             #
                  #   Max Planck Institute for Bioinorganic Chemistry  #
                  #                  D-45470 Muelheim/Ruhr             #
                  #                       Germany                      #
                  #                                                    #
                  #                  All rights reserved               #
                  #                        -***-                       #
                  ######################################################


                         Program Version 2.9.1 -  RELEASE  -


 With contributions from (in alphabetic order):
   Ute Becker             : Parallelization
   Dmitry Ganyushin       : Spin-Orbit,Spin-Spin,Magnetic field MRCI
   Andreas Hansen         : Spin unrestricted coupled pair/coupled cluster methods
   Dimitrios Liakos       : Parallel MDCI
   Robert Izsak           : Overlap fitted RIJCOSX
   Christian Kollmar      : KDIIS, orbital optimized coupled pair methods, Brueckner methods
   Simone Kossmann        : Meta GGA functionals, improved MP2 methods
   Taras Petrenko         : TD-DFT gradient, Resonance Raman, ABS, fluorescence, XAS, NRVS
   Christoph Reimann      : Effective Core Potentials
   Michael Roemelt        : Restricted open shell CI
   Christoph Riplinger    : Improved optimizer, TS searches, QM/MM
   Barbara Sandhoefer     : DKH, picture change effects
   Igor Schapiro          : Molecular dynamics
   Kantharuban Sivalingam : CASSCF and multireference perturbation theory
   Boris Wezisla          : Elementary symmetry handling
   Frank Wennmohs         : Technical directorship


 We gratefully acknowledge several collegues who have allowed us to
 interface, adapt or use parts of their codes:
   Stefan Grimme                                : VdW corrections, initial TS optimization
                                                  and many helpful discussions
   Ed Valeev                                    : LibInt (2-el integral package), F12 methods
   Andreas Klamt, Michael Diedenhofen           : otool_cosmo (COSMO solvation model)
   Frank Weinhold                               : gennbo (NPA and NBO analysis)


 Your calculation uses the libint2 library for the computation of 2-el integrals
 For citations please refer to: http://libint.valeyev.net

Your calculation utilizes the basis: 6-31G
Cite in your paper:
H - He: W.J. Hehre, R. Ditchfield and J.A. Pople, J. Chem. Phys. 56,
Li - Ne: 2257 (1972).  Note: Li and B come from J.D. Dill and J.A.
         Pople, J. Chem. Phys. 62, 2921 (1975).
Na - Ar: M.M. Francl, W.J. Pietro, W.J. Hehre, J.S. Binkley, M.S. Gordon,
         D.J. DeFrees and J.A. Pople, J. Chem. Phys. 77, 3654 (1982)
K  - Zn: V. Rassolov, J.A. Pople, M. Ratner and T.L. Windus, J. Chem. Phys.
         (accepted, 1998)
Note: He and Ne are unpublished basis sets taken from the Gaussian program



*****************************************
The coordinations will be read from file: atoms.xyz
*****************************************


================================================================================
                                        WARNINGS
                       Please study these warnings very carefully!
================================================================================
Now building the actual basis set

WARNING: Gradients are needed
  ===> : forcing at least TightSCF

WARNING: Geometry Optimization
  ===> : Switching off AutoStart
         For restart on a previous wavefunction, please use MOREAD


INFO   : the flag for use of LIBINT has been found!

================================================================================
                                       INPUT FILE
================================================================================
NAME = b3lyp.inp
|  1> ! rks b3lyp 6-31g opt
|  2> 
|  3> * xyzfile 0 1 atoms.xyz **                         ****END OF INPUT****
================================================================================

                       *****************************
                       * Geometry Optimization Run *
                       *****************************

Geometry optimization settings:
Update method            Update   .... BFGS
Choice of coordinates    CoordSys .... Redundant Internals
Initial Hessian          InHess   .... Almoef's Model

Convergence Tolerances:
Energy Change            TolE     ....  5.0000e-06 Eh
Max. Gradient            TolMAXG  ....  3.0000e-04 Eh/bohr
RMS Gradient             TolRMSG  ....  1.0000e-04 Eh/bohr
Max. Displacement        TolMAXD  ....  4.0000e-03 bohr
RMS Displacement         TolRMSD  ....  2.0000e-03 bohr

------------------------------------------------------------------------------
                        ORCA OPTIMIZATION COORDINATE SETUP
------------------------------------------------------------------------------

The optimization will be done in new redundant internal coordinates
Making redundant internal coordinates   ...  (new redundants) done
Evaluating the initial hessian          ...  (Almloef) done
Evaluating the coordinates              ...  done
Calculating the B-matrix                .... done
Calculating the G-matrix                .... done
Diagonalizing the G-matrix              .... done
Small eigenvalue found = 1.141e-02
Small eigenvalue found = 1.718e-02
The first mode is                       ....   36
The number of degrees of freedom        ....   57

    -----------------------------------------------------------------
                    Redundant Internal Coordinates


    -----------------------------------------------------------------
         Definition                    Initial Value    Approx d2E/dq
    -----------------------------------------------------------------
      1. B(C   2,C   0)                  1.3983         0.606025   
      2. B(C   3,C   2)                  1.3933         0.617358   
      3. B(C   3,C   1)                  1.3936         0.616603   
      4. B(C   5,C   0)                  1.4051         0.591045   
      5. B(C   6,C   5)                  1.4013         0.599360   
      6. B(C   6,C   1)                  1.4006         0.601017   
      7. B(C  10,C   5)                  1.4850         0.440740   
      8. B(C  10,O   9)                  1.3438         0.663063   
      9. B(C  10,O   7)                  1.2189         1.049304   
     10. B(C  11,O   8)                  1.2241         1.029502   
     11. B(C  11,C   4)                  1.4993         0.418150   
     12. B(O  12,C  11)                  1.3900         0.559592   
     13. B(O  12,C   6)                  1.3969         0.545512   
     14. B(H  13,O   9)                  0.9806         0.482016   
     15. B(H  14,C   0)                  1.0893         0.361000   
     16. B(H  15,C   1)                  1.0865         0.364742   
     17. B(H  16,C   2)                  1.0875         0.363477   
     18. B(H  17,C   3)                  1.0871         0.363915   
     19. B(H  18,C   4)                  1.0929         0.356274   
     20. B(H  19,C   4)                  1.0945         0.354162   
     21. B(H  20,C   4)                  1.0924         0.356901   
     22. A(C   5,C   0,H  14)          120.1951         0.350215   
     23. A(C   2,C   0,C   5)          120.8334         0.428594   
     24. A(C   2,C   0,H  14)          118.9714         0.351699   
     25. A(C   3,C   1,C   6)          119.9059         0.431220   
     26. A(C   6,C   1,H  15)          120.2616         0.351819   
     27. A(C   3,C   1,H  15)          119.8309         0.353346   
     28. A(C   3,C   2,H  16)          120.0625         0.353212   
     29. A(C   0,C   2,H  16)          119.8610         0.352106   
     30. A(C   0,C   2,C   3)          120.0764         0.431958   
     31. A(C   1,C   3,H  17)          120.0596         0.353210   
     32. A(C   1,C   3,C   2)          119.8955         0.433304   
     33. A(C   2,C   3,H  17)          120.0447         0.353284   
     34. A(H  18,C   4,H  20)          110.6839         0.289946   
     35. A(C  11,C   4,H  20)          109.8520         0.329913   
     36. A(H  18,C   4,H  19)          108.4653         0.289596   
     37. A(C  11,C   4,H  19)          109.2973         0.329493   
     38. A(H  19,C   4,H  20)          108.6176         0.289676   
     39. A(C  11,C   4,H  18)          109.8880         0.329817   
     40. A(C   0,C   5,C  10)          116.5242         0.404977   
     41. A(C   0,C   5,C   6)          118.2971         0.427745   
     42. A(C   6,C   5,C  10)          125.1773         0.405978   
     43. A(C   5,C   6,O  12)          122.6968         0.418917   
     44. A(C   1,C   6,O  12)          116.2790         0.419123   
     45. A(C   1,C   6,C   5)          120.9736         0.429030   
     46. A(C  10,O   9,H  13)          103.1438         0.369568   
     47. A(O   7,C  10,O   9)          119.9950         0.477192   
     48. A(C   5,C  10,O   9)          114.9806         0.410639   
     49. A(C   5,C  10,O   7)          125.0199         0.445853   
     50. A(C   4,C  11,O  12)          108.7588         0.394858   
     51. A(C   4,C  11,O   8)          124.3447         0.440111   
     52. A(O   8,C  11,O  12)          126.8950         0.460960   
     53. A(C   6,O  12,C  11)          112.5226         0.411157   
     54. D(C   3,C   2,C   0,H  14)    179.6708         0.025346   
     55. D(H  16,C   2,C   0,C   5)    179.8946         0.025346   
     56. D(H  16,C   2,C   0,H  14)     -0.2494         0.025346   
     57. D(C   3,C   2,C   0,C   5)     -0.1851         0.025346   
     58. D(H  17,C   3,C   1,C   6)   -179.3606         0.026291   
     59. D(C   1,C   3,C   2,H  16)   -179.7545         0.026360   
     60. D(C   2,C   3,C   1,C   6)      0.4889         0.026291   
     61. D(H  17,C   3,C   2,H  16)      0.0951         0.026360   
     62. D(H  17,C   3,C   2,C   0)   -179.8251         0.026360   
     63. D(C   2,C   3,C   1,H  15)   -179.9829         0.026291   
     64. D(H  17,C   3,C   1,H  15)      0.1676         0.026291   
     65. D(C   1,C   3,C   2,C   0)      0.3254         0.026360   
     66. D(C   6,C   5,C   0,H  14)    179.3884         0.024045   
     67. D(C  10,C   5,C   0,C   2)    178.8366         0.024045   
     68. D(C   6,C   5,C   0,C   2)     -0.7574         0.024045   
     69. D(C  10,C   5,C   0,H  14)     -1.0177         0.024045   
     70. D(O  12,C   6,C   5,C  10)     -0.6580         0.024762   
     71. D(C   1,C   6,C   5,C  10)   -177.9733         0.024762   
     72. D(C   1,C   6,C   5,C   0)      1.5823         0.024762   
     73. D(O  12,C   6,C   1,H  15)      1.5268         0.024906   
     74. D(O  12,C   6,C   1,C   3)   -178.9471         0.024906   
     75. D(O  12,C   6,C   5,C   0)    178.8976         0.024762   
     76. D(C   5,C   6,C   1,H  15)    179.0072         0.024906   
     77. D(C   5,C   6,C   1,C   3)     -1.4666         0.024906   
     78. D(O   7,C  10,O   9,H  13)      0.5890         0.032601   
     79. D(C   5,C  10,O   9,H  13)    179.8629         0.032601   
     80. D(O   9,C  10,C   5,C   6)      3.2840         0.013253   
     81. D(O   9,C  10,C   5,C   0)   -176.2786         0.013253   
     82. D(O   7,C  10,C   5,C   6)   -177.4838         0.013253   
     83. D(O   7,C  10,C   5,C   0)      2.9536         0.013253   
     84. D(O   8,C  11,C   4,H  18)   -120.5464         0.012933   
     85. D(O  12,C  11,C   4,H  20)    -62.1225         0.012933   
     86. D(O  12,C  11,C   4,H  19)    178.7967         0.012933   
     87. D(O  12,C  11,C   4,H  18)     59.8802         0.012933   
     88. D(O   8,C  11,C   4,H  20)    117.4510         0.012933   
     89. D(O   8,C  11,C   4,H  19)     -1.6299         0.012933   
     90. D(C   6,O  12,C  11,O   8)      2.8520         0.022686   
     91. D(C   6,O  12,C  11,C   4)   -177.5884         0.022686   
     92. D(C  11,O  12,C   6,C   5)     86.3237         0.021507   
     93. D(C  11,O  12,C   6,C   1)    -96.2434         0.021507   
    -----------------------------------------------------------------

Number of atoms                         .... 21
Number of degrees of freedom            .... 93

         *************************************************************
         *                GEOMETRY OPTIMIZATION CYCLE   1            *
         *************************************************************
---------------------------------
CARTESIAN COORDINATES (ANGSTROEM)
---------------------------------
  C      2.056390   -0.165430    0.397270
  C      0.688900    2.028540   -0.648160
  C      2.740710    1.023270    0.125330
  C      2.057340    2.117820   -0.400160
  C     -3.593960    1.032090    0.045890
  C      0.677380   -0.275070    0.150970
  C      0.002740    0.842340   -0.358870
  O      0.632930   -2.545260    0.933600
  O     -1.764520    1.432520    1.565710
  O     -1.248940   -1.684110    0.129750
  C      0.052780   -1.588810    0.449580
  C     -2.151990    1.128410    0.445130
  O     -1.361670    0.828320   -0.658250
  H     -1.476520   -2.601110    0.392320
  H      2.609480   -1.011730    0.802840
  H      0.157080    2.882660   -1.058230
  H      3.807770    1.091260    0.323640
  H      2.590440    3.040810   -0.614050
  H     -3.816400    0.020490   -0.302870
  H     -4.224800    1.245910    0.914400
  H     -3.812960    1.765760   -0.733320

----------------------------
CARTESIAN COORDINATES (A.U.)
----------------------------
  NO LB      ZA    FRAG    MASS        X           Y           Z
   0 C     6.0000    0    12.011    3.886014   -0.312617    0.750732
   1 C     6.0000    0    12.011    1.301832    3.833385   -1.224845
   2 C     6.0000    0    12.011    5.179191    1.933700    0.236839
   3 C     6.0000    0    12.011    3.887809    4.002100   -0.756193
   4 C     6.0000    0    12.011   -6.791600    1.950367    0.086720
   5 C     6.0000    0    12.011    1.280063   -0.519807    0.285292
   6 C     6.0000    0    12.011    0.005178    1.591792   -0.678166
   7 O     8.0000    0    15.999    1.196064   -4.809844    1.764248
   8 O     8.0000    0    15.999   -3.334460    2.707070    2.958763
   9 O     8.0000    0    15.999   -2.360155   -3.182507    0.245192
  10 C     6.0000    0    12.011    0.099740   -3.002416    0.849583
  11 C     6.0000    0    12.011   -4.066672    2.132386    0.841174
  12 O     8.0000    0    15.999   -2.573183    1.565298   -1.243912
  13 H     1.0000    0     1.008   -2.790218   -4.915386    0.741377
  14 H     1.0000    0     1.008    4.931203   -1.911893    1.517148
  15 H     1.0000    0     1.008    0.296838    5.447438   -1.999765
  16 H     1.0000    0     1.008    7.195642    2.062183    0.611591
  17 H     1.0000    0     1.008    4.895222    5.746298   -1.160386
  18 H     1.0000    0     1.008   -7.211951    0.038720   -0.572341
  19 H     1.0000    0     1.008   -7.983715    2.354429    1.727966
  20 H     1.0000    0     1.008   -7.205450    3.336803   -1.385774

--------------------------------
INTERNAL COORDINATES (ANGSTROEM)
--------------------------------
 C      0   0   0   0.000000     0.000     0.000
 C      1   0   0   2.788630     0.000     0.000
 C      1   2   0   1.398304    59.885     0.000
 C      3   1   2   1.393260   120.076   359.837
 C      2   1   3   4.451686   103.723   195.319
 C      1   2   3   1.405117    60.949   179.978
 C      2   1   3   1.400562    59.766   180.816
 O      6   1   2   2.401718    91.994   180.042
 O      5   2   1   2.411856    48.035    63.797
 O      8   6   1   2.220178    62.035   183.121
 C      8   6   1   1.218871    30.422   182.644
 C      9   5   2   1.224057    30.882   339.065
 O     12   9   5   1.390003   126.895   179.495
 H     10   8   6   0.980625    74.755   180.134
 H      1   2   3   1.089321   178.847   352.755
 H      2   1   3   1.086513   179.842    80.621
 H      3   1   2   1.087459   119.861   179.917
 H      4   3   1   1.087132   120.045   180.175
 H      5   2   1   1.092908   110.686   310.695
 H      5   2   1   1.094526   129.382    89.110
 H      5   2   1   1.092429    86.063   200.057

---------------------------
INTERNAL COORDINATES (A.U.)
---------------------------
 C      0   0   0   0.000000     0.000     0.000
 C      1   0   0   5.269747     0.000     0.000
 C      1   2   0   2.642411    59.885     0.000
 C      3   1   2   2.632880   120.076   359.837
 C      2   1   3   8.412467   103.723   195.319
 C      1   2   3   2.655286    60.949   179.978
 C      2   1   3   2.646679    59.766   180.816
 O      6   1   2   4.538589    91.994   180.042
 O      5   2   1   4.557747    48.035    63.797
 O      8   6   1   4.195528    62.035   183.121
 C      8   6   1   2.303332    30.422   182.644
 C      9   5   2   2.313132    30.882   339.065
 O     12   9   5   2.626724   126.895   179.495
 H     10   8   6   1.853112    74.755   180.134
 H      1   2   3   2.058518   178.847   352.755
 H      2   1   3   2.053212   179.842    80.621
 H      3   1   2   2.054999   119.861   179.917
 H      4   3   1   2.054381   120.045   180.175
 H      5   2   1   2.065297   110.686   310.695
 H      5   2   1   2.068355   129.382    89.110
 H      5   2   1   2.064391    86.063   200.057

---------------------
BASIS SET INFORMATION
---------------------
There are 3 groups of distinct atoms

 Group   1 Type C   : 10s4p contracted to 3s2p pattern {631/31}
 Group   2 Type O   : 10s4p contracted to 3s2p pattern {631/31}
 Group   3 Type H   : 4s contracted to 2s pattern {31}

Atom   0C    basis set group =>   1
Atom   1C    basis set group =>   1
Atom   2C    basis set group =>   1
Atom   3C    basis set group =>   1
Atom   4C    basis set group =>   1
Atom   5C    basis set group =>   1
Atom   6C    basis set group =>   1
Atom   7O    basis set group =>   2
Atom   8O    basis set group =>   2
Atom   9O    basis set group =>   2
Atom  10C    basis set group =>   1
Atom  11C    basis set group =>   1
Atom  12O    basis set group =>   2
Atom  13H    basis set group =>   3
Atom  14H    basis set group =>   3
Atom  15H    basis set group =>   3
Atom  16H    basis set group =>   3
Atom  17H    basis set group =>   3
Atom  18H    basis set group =>   3
Atom  19H    basis set group =>   3
Atom  20H    basis set group =>   3
------------------------------------------------------------------------------
                           ORCA GTO INTEGRAL CALCULATION
------------------------------------------------------------------------------

                         BASIS SET STATISTICS AND STARTUP INFO

 # of primitive gaussian shells          ...  214
 # of primitive gaussian functions       ...  318
 # of contracted shell                   ...   81
 # of contracted basis functions         ...  133
 Highest angular momentum                ...    1
 Maximum contraction depth               ...    6
 Integral package used                   ... LIBINT
 Integral threshhold             Thresh  ...  2.500e-11
 Primitive cut-off               TCut    ...  2.500e-12


                              INTEGRAL EVALUATION

 One electron integrals                  ... done
 Pre-screening matrix                    ... done
 Shell pair data                         ... done (   0.002 sec)

-------------------------------------------------------------------------------
                                 ORCA SCF
-------------------------------------------------------------------------------

------------
SCF SETTINGS
------------
Hamiltonian:
 Density Functional     Method          .... DFT(GTOs)
 Exchange Functional    Exchange        .... B88
   X-Alpha parameter    XAlpha          ....  0.666667
   Becke's b parameter  XBeta           ....  0.004200
 Correlation Functional Correlation     .... LYP
 LDA part of GGA corr.  LDAOpt          .... VWN-5
 Gradients option       PostSCFGGA      .... off
 Hybrid DFT is turned on
   Fraction HF Exchange ScalHFX         ....  0.200000
   Scaling of DF-GGA-X  ScalDFX         ....  0.720000
   Scaling of DF-GGA-C  ScalDFC         ....  0.810000
   Scaling of DF-LDA-C  ScalLDAC        ....  1.000000
   Perturbative correction              ....  0.000000


General Settings:
 Integral files         IntName         .... b3lyp
 Hartree-Fock type      HFTyp           .... RHF
 Total Charge           Charge          ....    0
 Multiplicity           Mult            ....    1
 Number of Electrons    NEL             ....   94
 Basis Dimension        Dim             ....  133
 Nuclear Repulsion      ENuc            ....    782.6611615805 Eh

Convergence Acceleration:
 DIIS                   CNVDIIS         .... on
   Start iteration      DIISMaxIt       ....    12
   Startup error        DIISStart       ....  0.200000
   # of expansion vecs  DIISMaxEq       ....     5
   Bias factor          DIISBfac        ....   1.050
   Max. coefficient     DIISMaxC        ....  10.000
 Newton-Raphson         CNVNR           .... off
 SOSCF                  CNVSOSCF        .... on
   Start iteration      SOSCFMaxIt      ....   150
   Startup grad/error   SOSCFStart      ....  0.003300
 Level Shifting         CNVShift        .... on
   Level shift para.    LevelShift      ....    0.2500
   Turn off err/grad.   ShiftErr        ....    0.0010
 Zerner damping         CNVZerner       .... off
 Static damping         CNVDamp         .... on
   Fraction old density DampFac         ....    0.7000
   Max. Damping (<1)    DampMax         ....    0.9800
   Min. Damping (>=0)   DampMin         ....    0.0000
   Turn off err/grad.   DampErr         ....    0.1000
 Fernandez-Rico         CNVRico         .... off

SCF Procedure:
 Maximum # iterations   MaxIter         ....   125
 SCF integral mode      SCFMode         .... Direct
   Integral package                     .... LIBINT
 Reset frequeny         DirectResetFreq ....    20
 Integral Threshold     Thresh          ....  2.500e-11 Eh
 Primitive CutOff       TCut            ....  2.500e-12 Eh

Convergence Tolerance:
 Convergence Check Mode ConvCheckMode   .... Total+1el-Energy
 Energy Change          TolE            ....  1.000e-08 Eh
 1-El. energy change                    ....  1.000e-05 Eh
 Orbital Gradient       TolG            ....  1.000e-05
 Orbital Rotation angle TolX            ....  1.000e-05
 DIIS Error             TolErr          ....  5.000e-07


Diagonalization of the overlap matrix:
Smallest eigenvalue                        ... 5.374e-04
Time for diagonalization                   ...    0.048 sec
Time for construction of square roots      ...    0.004 sec
Total time needed                          ...    0.053 sec

-------------------
DFT GRID GENERATION
-------------------

General Integration Accuracy     IntAcc      ...  4.340
Radial Grid Type                 RadialGrid  ... Gauss-Chebyshev
Angular Grid (max. acc.)         AngularGrid ... Lebedev-110
Angular grid pruning method      GridPruning ... 3 (G Style)
Weight generation scheme         WeightScheme... Becke
Basis function cutoff            BFCut       ...    1.0000e-11
Integration weight cutoff        WCut        ...    1.0000e-14
Grids for H and He will be reduced by one unit

# of grid points (after initial pruning)     ...  28120 (   0.0 sec)
# of grid points (after weights+screening)   ...  25848 (   0.3 sec)
nearest neighbour list constructed           ...    0.0 sec
Grid point re-assignment to atoms done       ...    0.0 sec
Grid point division into batches done        ...    0.0 sec
Reduced shell lists constructed in    0.4 sec

Total number of grid points                  ...    25848
Total number of batches                      ...      414
Average number of points per batch           ...       62
Average number of grid points per atom       ...     1231
Average number of shells per batch           ...    50.68 (62.56%)
Average number of basis functions per batch  ...    89.64 (67.40%)
Average number of large shells per batch     ...    36.34 (71.71%)
Average number of large basis fcns per batch ...    65.84 (73.45%)
Maximum spatial batch extension              ...  17.55, 19.49, 25.60 au
Average spatial batch extension              ...   3.29,  3.47,  3.93 au

Time for grid setup =    0.716 sec

------------------------------
INITIAL GUESS: MODEL POTENTIAL
------------------------------
Loading Hartree-Fock densities                     ... done
Calculating cut-offs                               ... done
Setting up the integral package                    ... done
Initializing the effective Hamiltonian             ... done
Starting the Coulomb interaction                   ... done (   0.2 sec)
Reading the grid                                   ... done
Mapping shells                                     ... done
Starting the XC term evaluation                    ... done (   1.2 sec)
  promolecular density results
     # of electrons  =     93.995068301
     EX              =    -81.421450878
     EC              =     -3.253784450
     EX+EC           =    -84.675235328
Transforming the Hamiltonian                       ... done (   0.0 sec)
Diagonalizing the Hamiltonian                      ... done (   0.0 sec)
Back transforming the eigenvectors                 ... done (   0.0 sec)
Now organizing SCF variables                       ... done
                      ------------------
                      INITIAL GUESS DONE (   1.5 sec)
                      ------------------
--------------
SCF ITERATIONS
--------------
ITER       Energy         Delta-E        Max-DP      RMS-DP      [F,P]     Damp
               ***  Starting incremental Fock matrix formation  ***
  0   -647.7244866958   0.000000000000 0.11265453  0.00491332  0.2717557 0.7000
  1   -647.9269478702  -0.202461174371 0.06159402  0.00284349  0.0975195 0.7000
                               ***Turning on DIIS***
  2   -647.9927455606  -0.065797690403 0.06441299  0.00377778  0.0420177 0.0000
  3   -648.1153066002  -0.122561039610 0.03896038  0.00188250  0.0547646 0.0000
  4   -648.1343809332  -0.019074332975 0.01264954  0.00068041  0.0211179 0.0000
  5   -648.1371653527  -0.002784419513 0.00329274  0.00019971  0.0035465 0.0000
                      *** Initiating the SOSCF procedure ***
                           *** Shutting down DIIS ***
                      *** Re-Reading the Fockian *** 
                      *** Removing any level shift *** 
ITER      Energy       Delta-E        Grad      Rot      Max-DP    RMS-DP
  6   -648.13725668  -0.0000913242  0.000392  0.000392  0.001533  0.000064
               *** Restarting incremental Fock matrix formation ***
  7   -648.13727025  -0.0000135688  0.000148  0.000721  0.000695  0.000032
  8   -648.13727036  -0.0000001121  0.000156  0.000287  0.000375  0.000016
  9   -648.13727130  -0.0000009435  0.000111  0.000254  0.000335  0.000010
 10   -648.13727121   0.0000000926  0.000122  0.000138  0.000217  0.000006
 11   -648.13727143  -0.0000002258  0.000016  0.000043  0.000086  0.000003
 12   -648.13727142   0.0000000156  0.000024  0.000026  0.000051  0.000002
 13   -648.13727145  -0.0000000271  0.000005  0.000016  0.000023  0.000001
 14   -648.13727145   0.0000000007  0.000010  0.000011  0.000016  0.000000
                  ***Gradient check signals convergence***
              ***Rediagonalizing the Fockian in SOSCF/NRSCF***

               *****************************************************
               *                     SUCCESS                       *
               *           SCF CONVERGED AFTER  15 CYCLES          *
               *****************************************************

Setting up the final grid:

General Integration Accuracy     IntAcc      ...  4.670
Radial Grid Type                 RadialGrid  ... Gauss-Chebyshev
Angular Grid (max. acc.)         AngularGrid ... Lebedev-302
Angular grid pruning method      GridPruning ... 3 (G Style)
Weight generation scheme         WeightScheme... Becke
Basis function cutoff            BFCut       ...    1.0000e-11
Integration weight cutoff        WCut        ...    1.0000e-14
Grids for H and He will be reduced by one unit

# of grid points (after initial pruning)     ... 107908 (   0.1 sec)
# of grid points (after weights+screening)   ...  97468 (   0.9 sec)
nearest neighbour list constructed           ...    0.0 sec
Grid point re-assignment to atoms done       ...    0.0 sec
Grid point division into batches done        ...    0.2 sec
Reduced shell lists constructed in    1.5 sec

Total number of grid points                  ...    97468
Total number of batches                      ...     1534
Average number of points per batch           ...       63
Average number of grid points per atom       ...     4641
Average number of shells per batch           ...    45.97 (56.75%)
Average number of basis functions per batch  ...    81.64 (61.38%)
Average number of large shells per batch     ...    32.33 (70.32%)
Average number of large basis fcns per batch ...    58.81 (72.03%)
Maximum spatial batch extension              ...  18.32, 19.16, 21.17 au
Average spatial batch extension              ...   2.30,  2.39,  2.56 au

Final grid set up in    2.5 sec
Final integration                            ... done (   1.1 sec)
Change in XC energy                          ...    -0.000027746
Integrated number of electrons               ...    93.999997518
Previous integrated no of electrons          ...    94.000871862

----------------
TOTAL SCF ENERGY
----------------

Total Energy       :         -648.13729919 Eh          -17636.71254 eV

Components:
Nuclear Repulsion  :          782.66116158 Eh           21297.29294 eV
Electronic Energy  :        -1430.79846077 Eh          -38934.00548 eV

One Electron Energy:        -2436.33345833 Eh          -66296.00382 eV
Two Electron Energy:         1005.53499756 Eh           27361.99834 eV

Virial components:
Potential Energy   :        -1293.28564161 Eh          -35192.09144 eV
Kinetic Energy     :          645.14834241 Eh           17555.37890 eV
Virial Ratio       :            2.00463298


DFT components:
N(Alpha)           :       46.999998759005 electrons
N(Beta)            :       46.999998759005 electrons
N(Total)           :       93.999997518010 electrons
E(X)               :      -65.538184013974 Eh       
E(C)               :       -3.831681394920 Eh       
E(XC)              :      -69.369865408894 Eh       

---------------
SCF CONVERGENCE
---------------

  Last Energy change         ...   -9.5247e-10  Tolerance :   1.0000e-08
  Last MAX-Density change    ...    5.9167e-06  Tolerance :   1.0000e-07
  Last RMS-Density change    ...    2.1875e-07  Tolerance :   5.0000e-09
  Last Orbital Gradient      ...    9.6399e-07  Tolerance :   1.0000e-05
  Last Orbital Rotation      ...    3.0785e-06  Tolerance :   1.0000e-05

             **** THE GBW FILE WAS UPDATED (b3lyp.gbw) ****
             **** DENSITY FILE WAS UPDATED (b3lyp.scfp.tmp) ****
             **** ENERGY FILE WAS UPDATED (b3lyp.en.tmp) ****
----------------
ORBITAL ENERGIES
----------------

  NO   OCC          E(Eh)            E(eV) 
   0   2.0000     -19.204328      -522.5763 
   1   2.0000     -19.201012      -522.4861 
   2   2.0000     -19.150534      -521.1125 
   3   2.0000     -19.146842      -521.0121 
   4   2.0000     -10.335567      -281.2451 
   5   2.0000     -10.331981      -281.1475 
   6   2.0000     -10.269640      -279.4511 
   7   2.0000     -10.221298      -278.1357 
   8   2.0000     -10.208371      -277.7839 
   9   2.0000     -10.207363      -277.7565 
  10   2.0000     -10.204993      -277.6920 
  11   2.0000     -10.201565      -277.5987 
  12   2.0000     -10.189647      -277.2744 
  13   2.0000      -1.142263       -31.0826 
  14   2.0000      -1.126405       -30.6510 
  15   2.0000      -1.046137       -28.4668 
  16   2.0000      -1.037755       -28.2387 
  17   2.0000      -0.880039       -23.9471 
  18   2.0000      -0.790542       -21.5117 
  19   2.0000      -0.781346       -21.2615 
  20   2.0000      -0.744728       -20.2651 
  21   2.0000      -0.680134       -18.5074 
  22   2.0000      -0.645097       -17.5540 
  23   2.0000      -0.610768       -16.6198 
  24   2.0000      -0.587634       -15.9903 
  25   2.0000      -0.529618       -14.4116 
  26   2.0000      -0.509957       -13.8766 
  27   2.0000      -0.494214       -13.4482 
  28   2.0000      -0.489671       -13.3246 
  29   2.0000      -0.476548       -12.9675 
  30   2.0000      -0.472209       -12.8495 
  31   2.0000      -0.462236       -12.5781 
  32   2.0000      -0.457439       -12.4476 
  33   2.0000      -0.448351       -12.2003 
  34   2.0000      -0.410195       -11.1620 
  35   2.0000      -0.407019       -11.0755 
  36   2.0000      -0.403545       -10.9810 
  37   2.0000      -0.392867       -10.6905 
  38   2.0000      -0.378908       -10.3106 
  39   2.0000      -0.368731       -10.0337 
  40   2.0000      -0.365147        -9.9361 
  41   2.0000      -0.323990        -8.8162 
  42   2.0000      -0.312321        -8.4987 
  43   2.0000      -0.287406        -7.8207 
  44   2.0000      -0.280618        -7.6360 
  45   2.0000      -0.272115        -7.4046 
  46   2.0000      -0.262143        -7.1333 
  47   0.0000      -0.056692        -1.5427 
  48   0.0000      -0.016150        -0.4395 
  49   0.0000      -0.005139        -0.1398 
  50   0.0000       0.046727         1.2715 
  51   0.0000       0.067041         1.8243 
  52   0.0000       0.088149         2.3987 
  53   0.0000       0.113516         3.0889 
  54   0.0000       0.135095         3.6761 
  55   0.0000       0.141999         3.8640 
  56   0.0000       0.154509         4.2044 
  57   0.0000       0.162975         4.4348 
  58   0.0000       0.170516         4.6400 
  59   0.0000       0.178358         4.8534 
  60   0.0000       0.189062         5.1446 
  61   0.0000       0.221379         6.0240 
  62   0.0000       0.237553         6.4641 
  63   0.0000       0.246282         6.7017 
  64   0.0000       0.265064         7.2128 
  65   0.0000       0.287844         7.8326 
  66   0.0000       0.319795         8.7021 
  67   0.0000       0.323014         8.7897 
  68   0.0000       0.349703         9.5159 
  69   0.0000       0.365611         9.9488 
  70   0.0000       0.396779        10.7969 
  71   0.0000       0.494590        13.4585 
  72   0.0000       0.501886        13.6570 
  73   0.0000       0.511679        13.9235 
  74   0.0000       0.534874        14.5547 
  75   0.0000       0.542823        14.7710 
  76   0.0000       0.554075        15.0771 
  77   0.0000       0.568118        15.4593 
  78   0.0000       0.581171        15.8145 
  79   0.0000       0.586077        15.9480 
  80   0.0000       0.592418        16.1205 
  81   0.0000       0.604330        16.4447 
  82   0.0000       0.615729        16.7548 
  83   0.0000       0.624725        16.9996 
  84   0.0000       0.632212        17.2034 
  85   0.0000       0.636026        17.3072 
  86   0.0000       0.648454        17.6453 
  87   0.0000       0.653707        17.7883 
  88   0.0000       0.666017        18.1232 
  89   0.0000       0.685545        18.6546 
  90   0.0000       0.693855        18.8808 
  91   0.0000       0.736455        20.0400 
  92   0.0000       0.761128        20.7113 
  93   0.0000       0.786380        21.3985 
  94   0.0000       0.806043        21.9336 
  95   0.0000       0.817386        22.2422 
  96   0.0000       0.826360        22.4864 
  97   0.0000       0.852271        23.1915 
  98   0.0000       0.857062        23.3218 
  99   0.0000       0.881053        23.9747 
 100   0.0000       0.891329        24.2543 
 101   0.0000       0.905766        24.6471 
 102   0.0000       0.927795        25.2466 
 103   0.0000       0.934635        25.4327 
 104   0.0000       0.950608        25.8674 
 105   0.0000       0.954926        25.9848 
 106   0.0000       0.965227        26.2651 
 107   0.0000       0.981790        26.7159 
 108   0.0000       0.982240        26.7281 
 109   0.0000       0.999003        27.1843 
 110   0.0000       1.025444        27.9038 
 111   0.0000       1.038377        28.2557 
 112   0.0000       1.053373        28.6637 
 113   0.0000       1.085479        29.5374 
 114   0.0000       1.113229        30.2925 
 115   0.0000       1.124525        30.5999 
 116   0.0000       1.133937        30.8560 
 117   0.0000       1.177400        32.0387 
 118   0.0000       1.205741        32.8099 
 119   0.0000       1.212988        33.0071 
 120   0.0000       1.251368        34.0515 
 121   0.0000       1.292771        35.1781 
 122   0.0000       1.331212        36.2241 
 123   0.0000       1.415090        38.5065 
 124   0.0000       1.443268        39.2733 
 125   0.0000       1.464955        39.8635 
 126   0.0000       1.489943        40.5434 
 127   0.0000       1.576119        42.8884 
 128   0.0000       1.780939        48.4618 
 129   0.0000       1.821079        49.5541 
 130   0.0000       1.914547        52.0975 
 131   0.0000       2.086792        56.7845 
 132   0.0000       2.119982        57.6876 

                    ********************************
                    * MULLIKEN POPULATION ANALYSIS *
                    ********************************

-----------------------
MULLIKEN ATOMIC CHARGES
-----------------------
   0 C :   -0.160169
   1 C :   -0.098930
   2 C :   -0.118386
   3 C :   -0.115581
   4 C :   -0.455712
   5 C :    0.130066
   6 C :    0.225918
   7 O :   -0.394759
   8 O :   -0.390539
   9 O :   -0.536956
  10 C :    0.399476
  11 C :    0.501323
  12 O :   -0.512242
  13 H :    0.385855
  14 H :    0.177749
  15 H :    0.145767
  16 H :    0.142068
  17 H :    0.142806
  18 H :    0.185301
  19 H :    0.172311
  20 H :    0.174632
Sum of atomic charges:   -0.0000000

--------------------------------
MULLIKEN REDUCED ORBITAL CHARGES
--------------------------------
  0 C s       :     3.228378  s :     3.228378
      pz      :     0.957809  p :     2.931791
      px      :     0.971549
      py      :     1.002433
  1 C s       :     3.194658  s :     3.194658
      pz      :     1.010715  p :     2.904272
      px      :     0.935355
      py      :     0.958203
  2 C s       :     3.198789  s :     3.198789
      pz      :     0.988328  p :     2.919597
      px      :     1.010744
      py      :     0.920525
  3 C s       :     3.202394  s :     3.202394
      pz      :     0.961230  p :     2.913186
      px      :     0.952315
      py      :     0.999641
  4 C s       :     3.339690  s :     3.339690
      pz      :     1.085807  p :     3.116022
      px      :     0.930653
      py      :     1.099563
  5 C s       :     3.140284  s :     3.140284
      pz      :     1.021437  p :     2.729650
      px      :     0.861174
      py      :     0.847038
  6 C s       :     3.143130  s :     3.143130
      pz      :     0.975841  p :     2.630952
      px      :     0.636530
      py      :     1.018580
  7 O s       :     3.930425  s :     3.930425
      pz      :     1.402181  p :     4.464334
      px      :     1.628593
      py      :     1.433561
  8 O s       :     3.950627  s :     3.950627
      pz      :     1.336957  p :     4.439912
      px      :     1.718909
      py      :     1.384047
  9 O s       :     3.924353  s :     3.924353
      pz      :     1.763810  p :     4.612603
      px      :     1.391936
      py      :     1.456857
 10 C s       :     2.950900  s :     2.950900
      pz      :     0.849729  p :     2.649623
      px      :     0.781804
      py      :     1.018090
 11 C s       :     3.009791  s :     3.009791
      pz      :     0.735730  p :     2.488886
      px      :     0.937816
      py      :     0.815340
 12 O s       :     3.951010  s :     3.951010
      pz      :     1.544247  p :     4.561232
      px      :     1.270001
      py      :     1.746984
 13 H s       :     0.614145  s :     0.614145
 14 H s       :     0.822251  s :     0.822251
 15 H s       :     0.854233  s :     0.854233
 16 H s       :     0.857932  s :     0.857932
 17 H s       :     0.857194  s :     0.857194
 18 H s       :     0.814699  s :     0.814699
 19 H s       :     0.827689  s :     0.827689
 20 H s       :     0.825368  s :     0.825368


                     *******************************
                     * LOEWDIN POPULATION ANALYSIS *
                     *******************************

----------------------
LOEWDIN ATOMIC CHARGES
----------------------
   0 C :   -0.070415
   1 C :   -0.119923
   2 C :   -0.114465
   3 C :   -0.086804
   4 C :   -0.344672
   5 C :   -0.082721
   6 C :    0.133001
   7 O :   -0.286785
   8 O :   -0.262928
   9 O :   -0.307857
  10 C :    0.236154
  11 C :    0.264363
  12 O :   -0.207086
  13 H :    0.303151
  14 H :    0.143552
  15 H :    0.132809
  16 H :    0.125312
  17 H :    0.125561
  18 H :    0.145507
  19 H :    0.133784
  20 H :    0.140465

-------------------------------
LOEWDIN REDUCED ORBITAL CHARGES
-------------------------------
  0 C s       :     2.944406  s :     2.944406
      pz      :     0.972840  p :     3.126009
      px      :     1.064104
      py      :     1.089065
  1 C s       :     2.946159  s :     2.946159
      pz      :     1.024555  p :     3.173764
      px      :     1.082323
      py      :     1.066887
  2 C s       :     2.941027  s :     2.941027
      pz      :     1.010658  p :     3.173438
      px      :     1.094287
      py      :     1.068493
  3 C s       :     2.943812  s :     2.943812
      pz      :     0.980169  p :     3.142993
      px      :     1.078969
      py      :     1.083856
  4 C s       :     2.996428  s :     2.996428
      pz      :     1.145022  p :     3.348244
      px      :     1.058222
      py      :     1.145000
  5 C s       :     2.914259  s :     2.914259
      pz      :     1.049644  p :     3.168463
      px      :     1.078049
      py      :     1.040769
  6 C s       :     2.895890  s :     2.895890
      pz      :     1.001922  p :     2.971109
      px      :     0.873725
      py      :     1.095462
  7 O s       :     3.626187  s :     3.626187
      pz      :     1.430439  p :     4.660598
      px      :     1.704197
      py      :     1.525962
  8 O s       :     3.635378  s :     3.635378
      pz      :     1.449056  p :     4.627550
      px      :     1.779453
      py      :     1.399042
  9 O s       :     3.586620  s :     3.586620
      pz      :     1.769633  p :     4.721237
      px      :     1.452341
      py      :     1.499264
 10 C s       :     2.889404  s :     2.889404
      pz      :     0.879345  p :     2.874442
      px      :     0.938517
      py      :     1.056580
 11 C s       :     2.911769  s :     2.911769
      pz      :     0.970948  p :     2.823868
      px      :     1.018400
      py      :     0.834520
 12 O s       :     3.546730  s :     3.546730
      pz      :     1.589482  p :     4.660357
      px      :     1.309035
      py      :     1.761840
 13 H s       :     0.696849  s :     0.696849
 14 H s       :     0.856448  s :     0.856448
 15 H s       :     0.867191  s :     0.867191
 16 H s       :     0.874688  s :     0.874688
 17 H s       :     0.874439  s :     0.874439
 18 H s       :     0.854493  s :     0.854493
 19 H s       :     0.866216  s :     0.866216
 20 H s       :     0.859535  s :     0.859535


                      *****************************
                      * MAYER POPULATION ANALYSIS *
                      *****************************

  NA   - Mulliken gross atomic population
  ZA   - Total nuclear charge
  QA   - Mulliken gross atomic charge
  VA   - Mayer's total valence
  BVA  - Mayer's bonded valence
  FA   - Mayer's free valence

  ATOM       NA         ZA         QA         VA         BVA        FA
  0 C      6.1602     6.0000    -0.1602     3.8914     3.8914    -0.0000
  1 C      6.0989     6.0000    -0.0989     3.8581     3.8581    -0.0000
  2 C      6.1184     6.0000    -0.1184     3.8676     3.8676     0.0000
  3 C      6.1156     6.0000    -0.1156     3.8898     3.8898    -0.0000
  4 C      6.4557     6.0000    -0.4557     3.7312     3.7312     0.0000
  5 C      5.8699     6.0000     0.1301     3.6838     3.6838    -0.0000
  6 C      5.7741     6.0000     0.2259     3.7824     3.7824    -0.0000
  7 O      8.3948     8.0000    -0.3948     2.0555     2.0555    -0.0000
  8 O      8.3905     8.0000    -0.3905     2.0438     2.0438    -0.0000
  9 O      8.5370     8.0000    -0.5370     1.8320     1.8320    -0.0000
 10 C      5.6005     6.0000     0.3995     3.8833     3.8833    -0.0000
 11 C      5.4987     6.0000     0.5013     3.8031     3.8031    -0.0000
 12 O      8.5122     8.0000    -0.5122     1.7959     1.7959    -0.0000
 13 H      0.6141     1.0000     0.3859     0.8425     0.8425    -0.0000
 14 H      0.8223     1.0000     0.1777     0.9419     0.9419    -0.0000
 15 H      0.8542     1.0000     0.1458     0.9428     0.9428    -0.0000
 16 H      0.8579     1.0000     0.1421     0.9418     0.9418     0.0000
 17 H      0.8572     1.0000     0.1428     0.9409     0.9409    -0.0000
 18 H      0.8147     1.0000     0.1853     0.9337     0.9337     0.0000
 19 H      0.8277     1.0000     0.1723     0.9360     0.9360    -0.0000
 20 H      0.8254     1.0000     0.1746     0.9336     0.9336     0.0000

  Mayer bond orders larger than 0.1
B(  0-C ,  2-C ) :   1.4364 B(  0-C ,  5-C ) :   1.3716 B(  0-C , 14-H ) :   0.9128 
B(  1-C ,  3-C ) :   1.4308 B(  1-C ,  6-C ) :   1.4121 B(  1-C , 15-H ) :   0.9234 
B(  2-C ,  3-C ) :   1.4274 B(  2-C , 16-H ) :   0.9307 B(  3-C , 17-H ) :   0.9275 
B(  4-C , 11-C ) :   0.9473 B(  4-C , 18-H ) :   0.9296 B(  4-C , 19-H ) :   0.9440 
B(  4-C , 20-H ) :   0.9320 B(  5-C ,  6-C ) :   1.3289 B(  5-C , 10-C ) :   0.9202 
B(  6-C , 12-O ) :   0.8240 B(  7-O , 10-C ) :   1.8829 B(  8-O , 11-C ) :   1.9145 
B(  9-O , 10-C ) :   1.0006 B(  9-O , 13-H ) :   0.7763 B( 11-C , 12-O ) :   0.8964 


-------
TIMINGS
-------

Total SCF time: 0 days 0 hours 1 min 2 sec 

Total time                  ....      62.571 sec
Sum of individual times     ....      64.729 sec  (103.4%)

Fock matrix formation       ....      59.879 sec  ( 95.7%)
  Coulomb formation         ....      53.963 sec  ( 90.1% of F)
  XC integration            ....       5.911 sec  (  9.9% of F)
    Basis function eval.    ....       2.870 sec  ( 48.6% of XC)
    Density eval.           ....       1.289 sec  ( 21.8% of XC)
    XC-Functional eval.     ....       0.583 sec  (  9.9% of XC)
    XC-Potential eval.      ....       1.010 sec  ( 17.1% of XC)
Diagonalization             ....       0.042 sec  (  0.1%)
Density matrix formation    ....       0.007 sec  (  0.0%)
Population analysis         ....       0.088 sec  (  0.1%)
Initial guess               ....       1.461 sec  (  2.3%)
Orbital Transformation      ....       0.000 sec  (  0.0%)
Orbital Orthonormalization  ....       0.000 sec  (  0.0%)
DIIS solution               ....       0.009 sec  (  0.0%)
SOSCF solution              ....       0.045 sec  (  0.1%)
Grid generation             ....       3.197 sec  (  5.1%)

-------------------------   --------------------
FINAL SINGLE POINT ENERGY      -648.137299191882
-------------------------   --------------------

------------------------------------------------------------------------------
                         ORCA SCF GRADIENT CALCULATION
------------------------------------------------------------------------------

Gradient of the Kohn-Sham DFT energy:
Kohn-Sham wavefunction type      ... RKS
Hartree-Fock exchange scaling    ...    0.200
Number of operators              ...    1
Number of atoms                  ...   21
Basis set dimensions             ...  133
Integral neglect threshold       ... 2.5e-11
Integral primitive cutoff        ... 2.5e-12

Nuclear repulsion gradient       ... done
One Electron Gradient            ... done
Pre-screening matrix             ... done
Starting the two electron gradient:
Two electron gradient done
Exchange-correlation gradient    ... done

------------------
CARTESIAN GRADIENT
------------------

   1   C   :   -0.009259845   -0.004293473   -0.000199377
   2   C   :    0.000455056    0.000250595   -0.000909536
   3   C   :   -0.004121472    0.006393204   -0.003327510
   4   C   :   -0.001116486   -0.004226671    0.001667595
   5   C   :    0.005152809   -0.001384116   -0.007832336
   6   C   :   -0.001913796    0.008169685   -0.003024084
   7   C   :   -0.022767250   -0.008744390    0.013561021
   8   O   :   -0.021619355    0.025709198   -0.014437767
   9   O   :   -0.014275217    0.000663186    0.000285232
  10   O   :    0.024084036    0.007256637    0.002380929
  11   C   :   -0.013202717   -0.037225336    0.009149979
  12   C   :    0.039813405    0.001174528    0.000876976
  13   O   :   -0.004018506   -0.003283565   -0.011063305
  14   H   :    0.012795336    0.003794706    0.002190781
  15   H   :    0.006066292   -0.000334160    0.001514308
  16   H   :    0.002145646    0.003401267   -0.000857270
  17   H   :    0.001810416    0.000684637    0.000063666
  18   H   :    0.001220751    0.000792396    0.000160470
  19   H   :   -0.000470734   -0.001004851    0.004623544
  20   H   :   -0.001931318   -0.000357100    0.001069163
  21   H   :    0.001260905    0.002548353    0.004193983

Norm of the cartesian gradient     ...    0.083679435
RMS gradient                       ...    0.010542618
MAX gradient                       ...    0.039813405

-------
TIMINGS
-------

Total SCF gradient time            ...       34.479 sec

One electron gradient       ....       0.217 sec  (  0.6%)
Prescreening matrices       ....       0.059 sec  (  0.2%)
Two electron gradient       ....      25.684 sec  ( 74.5%)
XC gradient                 ....       8.064 sec  ( 23.4%)
------------------------------------------------------------------------------
                         ORCA GEOMETRY RELAXATION STEP
------------------------------------------------------------------------------

Reading the OPT-File                    .... done
Getting information on internals        .... done
Copying old internal coords+grads       .... done
Making the new internal coordinates     .... (new redundants).... done
Validating the new internal coordinates .... (new redundants).... done
Calculating the B-matrix                .... done
Calculating the G,G- and P matrices     .... done
Transforming gradient to internals      .... done
Projecting the internal gradient        .... done
Number of atoms                         ....  21
Number of internal coordinates          ....  93
Current Energy                          ....  -648.137299192 Eh
Current gradient norm                   ....     0.083679435 Eh/bohr
Maximum allowed component of the step   ....  0.300
Current trust radius                    ....  0.300
Evaluating the initial hessian          ....  (Almloef) done
Projecting the Hessian                  .... done
Forming the augmented Hessian           .... done
Diagonalizing the augmented Hessian     .... done
Last element of RFO vector              ....  0.977824238
Lowest eigenvalues of augmented Hessian:
 -0.012943356  0.012933718  0.013359408  0.015495473  0.019279900
Length of the computed step             ....  0.214176751
The final length of the internal step   ....  0.214176751
Converting the step to cartesian space:
 Initial RMS(Int)=    0.0222090945
Transforming coordinates:
 Iter   0:  RMS(Cart)=    0.1214361795 RMS(Int)=    1.1264915050
 Iter   1:  RMS(Cart)=    0.0075238102 RMS(Int)=    0.0030667808
 Iter   2:  RMS(Cart)=    0.0006240832 RMS(Int)=    0.0002108080
 Iter   3:  RMS(Cart)=    0.0000852030 RMS(Int)=    0.0000310173
 Iter   4:  RMS(Cart)=    0.0000070968 RMS(Int)=    0.0000031323
 Iter   5:  RMS(Cart)=    0.0000009205 RMS(Int)=    0.0000003417
 Iter   6:  RMS(Cart)=    0.0000000809 RMS(Int)=    0.0000000418
done
Storing new coordinates                 .... done

                                .--------------------.
          ----------------------|Geometry convergence|---------------------
          Item                value                 Tolerance   Converged
          -----------------------------------------------------------------
          RMS gradient        0.00848391            0.00010000      NO
          MAX gradient        0.03969748            0.00030000      NO
          RMS step            0.02220909            0.00200000      NO
          MAX step            0.09360402            0.00400000      NO
          ....................................................
          Max(Bonds)      0.0294      Max(Angles)    5.36
          Max(Dihed)        3.90      Max(Improp)    0.00
          -----------------------------------------------------------------

The optimization has not yet converged - more geometry cycles are needed


    ---------------------------------------------------------------------------
                         Redundant Internal Coordinates
                            (Angstroem and degrees)

        Definition                    Value    dE/dq     Step     New-Value
    ----------------------------------------------------------------------------
     1. B(C   2,C   0)                1.3983  0.003309 -0.0029    1.3955   
     2. B(C   3,C   2)                1.3933 -0.006135  0.0052    1.3984   
     3. B(C   3,C   1)                1.3936 -0.003725  0.0032    1.3968   
     4. B(C   5,C   0)                1.4051 -0.001718  0.0015    1.4066   
     5. B(C   6,C   5)                1.4013 -0.006654  0.0057    1.4071   
     6. B(C   6,C   1)                1.4006  0.003719 -0.0032    1.3974   
     7. B(C  10,C   5)                1.4850 -0.000598  0.0007    1.4857   
     8. B(C  10,O   9)                1.3438 -0.037597  0.0294    1.3732   
     9. B(C  10,O   7)                1.2189 -0.036199  0.0180    1.2369   
    10. B(C  11,O   8)                1.2241 -0.004108  0.0021    1.2261   
    11. B(C  11,C   4)                1.4993 -0.004347  0.0053    1.5047   
    12. B(O  12,C  11)                1.3900 -0.013958  0.0129    1.4029   
    13. B(O  12,C   6)                1.3969 -0.023168  0.0220    1.4189   
    14. B(H  13,O   9)                0.9806 -0.005930  0.0063    0.9870   
    15. B(H  14,C   0)                1.0893  0.003898 -0.0055    1.0838   
    16. B(H  15,C   1)                1.0865  0.001952 -0.0027    1.0838   
    17. B(H  16,C   2)                1.0875  0.001826 -0.0026    1.0849   
    18. B(H  17,C   3)                1.0871  0.001240 -0.0017    1.0854   
    19. B(H  18,C   4)                1.0929 -0.000436  0.0006    1.0935   
    20. B(H  19,C   4)                1.0945  0.001879 -0.0027    1.0918   
    21. B(H  20,C   4)                1.0924 -0.001523  0.0022    1.0946   
    22. A(C   5,C   0,H  14)          120.20  0.006157   -0.94    119.25   
    23. A(C   2,C   0,C   5)          120.83 -0.002237    0.30    121.13   
    24. A(C   2,C   0,H  14)          118.97 -0.003921    0.64    119.61   
    25. A(C   3,C   1,C   6)          119.91 -0.001234    0.18    120.09   
    26. A(C   6,C   1,H  15)          120.26  0.004328   -0.67    119.59   
    27. A(C   3,C   1,H  15)          119.83 -0.003098    0.49    120.32   
    28. A(C   3,C   2,H  16)          120.06 -0.001579    0.23    120.29   
    29. A(C   0,C   2,H  16)          119.86 -0.000275    0.02    119.89   
    30. A(C   0,C   2,C   3)          120.08  0.001854   -0.25    119.82   
    31. A(C   1,C   3,H  17)          120.06  0.000751   -0.12    119.94   
    32. A(C   1,C   3,C   2)          119.90  0.000037    0.01    119.90   
    33. A(C   2,C   3,H  17)          120.04 -0.000789    0.12    120.16   
    34. A(H  18,C   4,H  20)          110.68  0.004434   -1.34    109.34   
    35. A(C  11,C   4,H  20)          109.85 -0.002400    0.29    110.14   
    36. A(H  18,C   4,H  19)          108.47 -0.002056    0.66    109.13   
    37. A(C  11,C   4,H  19)          109.30  0.000738    0.12    109.41   
    38. A(H  19,C   4,H  20)          108.62 -0.000825    0.43    109.05   
    39. A(C  11,C   4,H  18)          109.89  0.000081   -0.13    109.76   
    40. A(C   0,C   5,C  10)          116.52  0.003861   -0.52    116.00   
    41. A(C   0,C   5,C   6)          118.30  0.000318   -0.05    118.25   
    42. A(C   6,C   5,C  10)          125.18 -0.004182    0.58    125.75   
    43. A(C   5,C   6,O  12)          122.70  0.001365   -0.19    122.50   
    44. A(C   1,C   6,O  12)          116.28 -0.002594    0.33    116.61   
    45. A(C   1,C   6,C   5)          120.97  0.001248   -0.17    120.81   
    46. A(C  10,O   9,H  13)          103.14 -0.022527    3.37    106.52   
    47. A(O   7,C  10,O   9)          120.00 -0.003542    0.41    120.41   
    48. A(C   5,C  10,O   9)          114.98 -0.004793    0.65    115.63   
    49. A(C   5,C  10,O   7)          125.02  0.008324   -1.04    123.98   
    50. A(C   4,C  11,O  12)          108.76 -0.008781    1.15    109.91   
    51. A(C   4,C  11,O   8)          124.34 -0.011448    1.37    125.72   
    52. A(O   8,C  11,O  12)          126.89  0.020228   -2.52    124.38   
    53. A(C   6,O  12,C  11)          112.52 -0.039697    5.36    117.89   
    54. D(C   3,C   2,C   0,H  14)    179.67 -0.000267    0.39    180.06   
    55. D(H  16,C   2,C   0,C   5)    179.89  0.000088   -0.14    179.76   
    56. D(H  16,C   2,C   0,H  14)     -0.25 -0.000152    0.22     -0.03   
    57. D(C   3,C   2,C   0,C   5)     -0.19 -0.000027    0.03     -0.15   
    58. D(H  17,C   3,C   1,C   6)   -179.36  0.000302   -0.47   -179.83   
    59. D(C   1,C   3,C   2,H  16)   -179.75 -0.000015    0.02   -179.73   
    60. D(C   2,C   3,C   1,C   6)      0.49  0.000168   -0.28      0.20   
    61. D(H  17,C   3,C   2,H  16)      0.10 -0.000147    0.20      0.30   
    62. D(H  17,C   3,C   2,C   0)   -179.83 -0.000034    0.03   -179.79   
    63. D(C   2,C   3,C   1,H  15)   -179.98 -0.000310    0.44   -179.55   
    64. D(H  17,C   3,C   1,H  15)      0.17 -0.000176    0.25      0.42   
    65. D(C   1,C   3,C   2,C   0)      0.33  0.000098   -0.15      0.18   
    66. D(C   6,C   5,C   0,H  14)    179.39 -0.000106    0.14    179.53   
    67. D(C  10,C   5,C   0,C   2)    178.84 -0.000848    1.29    180.13   
    68. D(C   6,C   5,C   0,C   2)     -0.76 -0.000364    0.51     -0.25   
    69. D(C  10,C   5,C   0,H  14)     -1.02 -0.000590    0.93     -0.09   
    70. D(O  12,C   6,C   5,C  10)     -0.66  0.001577   -2.53     -3.19   
    71. D(C   1,C   6,C   5,C  10)   -177.97  0.001158   -1.80   -179.78   
    72. D(C   1,C   6,C   5,C   0)      1.58  0.000666   -0.95      0.63   
    73. D(O  12,C   6,C   1,H  15)      1.53 -0.000559    0.81      2.34   
    74. D(O  12,C   6,C   1,C   3)   -178.95 -0.001074    1.54   -177.41   
    75. D(O  12,C   6,C   5,C   0)    178.90  0.001085   -1.67    177.22   
    76. D(C   5,C   6,C   1,H  15)    179.01 -0.000071    0.12    179.13   
    77. D(C   5,C   6,C   1,C   3)     -1.47 -0.000586    0.85     -0.62   
    78. D(O   7,C  10,O   9,H  13)      0.59  0.000477   -0.88     -0.29   
    79. D(C   5,C  10,O   9,H  13)    179.86 -0.000376    0.75    180.62   
    80. D(O   9,C  10,C   5,C   6)      3.28  0.001124   -2.35      0.93   
    81. D(O   9,C  10,C   5,C   0)   -176.28  0.001622   -3.19   -179.47   
    82. D(O   7,C  10,C   5,C   6)   -177.48  0.000117   -0.61   -178.09   
    83. D(O   7,C  10,C   5,C   0)      2.95  0.000615   -1.45      1.50   
    84. D(O   8,C  11,C   4,H  18)   -120.55  0.001860   -0.43   -120.97   
    85. D(O  12,C  11,C   4,H  20)    -62.12 -0.002018    0.77    -61.35   
    86. D(O  12,C  11,C   4,H  19)    178.80 -0.000015    0.01    178.80   
    87. D(O  12,C  11,C   4,H  18)     59.88  0.001999   -0.79     59.09   
    88. D(O   8,C  11,C   4,H  20)    117.45 -0.002157    1.14    118.59   
    89. D(O   8,C  11,C   4,H  19)     -1.63 -0.000154    0.37     -1.26   
    90. D(C   6,O  12,C  11,O   8)      2.85  0.000527   -0.79      2.06   
    91. D(C   6,O  12,C  11,C   4)   -177.59  0.000208   -0.39   -177.98   
    92. D(C  11,O  12,C   6,C   5)     86.32  0.001890   -3.20     83.12   
    93. D(C  11,O  12,C   6,C   1)    -96.24  0.002382   -3.90   -100.15   
    ----------------------------------------------------------------------------

         *************************************************************
         *                GEOMETRY OPTIMIZATION CYCLE   2            *
         *************************************************************
---------------------------------
CARTESIAN COORDINATES (ANGSTROEM)
---------------------------------
  C      2.100497   -0.175652    0.340487
  C      0.732733    2.064158   -0.602513
  C      2.800131    1.000324    0.066849
  C      2.114609    2.122971   -0.407824
  C     -3.661159    1.012013   -0.011640
  C      0.709073   -0.255048    0.150454
  C      0.034895    0.887019   -0.319609
  O      0.700597   -2.533804    0.923826
  O     -1.888409    1.299017    1.630434
  O     -1.276614   -1.632553    0.280978
  C      0.080181   -1.560069    0.480143
  C     -2.239270    1.090720    0.474175
  O     -1.356488    0.890570   -0.597634
  H     -1.551337   -2.541938    0.548643
  H      2.635006   -1.043382    0.709235
  H      0.195686    2.927780   -0.977095
  H      3.872763    1.040319    0.224496
  H      2.653793    3.039423   -0.625697
  H     -3.843326    0.033685   -0.464964
  H     -4.340889    1.147541    0.831962
  H     -3.850294    1.795586   -0.752186

----------------------------
CARTESIAN COORDINATES (A.U.)
----------------------------
  NO LB      ZA    FRAG    MASS        X           Y           Z
   0 C     6.0000    0    12.011    3.969364   -0.331934    0.643427
   1 C     6.0000    0    12.011    1.384665    3.900694   -1.138585
   2 C     6.0000    0    12.011    5.291482    1.890338    0.126327
   3 C     6.0000    0    12.011    3.996032    4.011833   -0.770676
   4 C     6.0000    0    12.011   -6.918588    1.912428   -0.021996
   5 C     6.0000    0    12.011    1.339954   -0.481971    0.284317
   6 C     6.0000    0    12.011    0.065942    1.676222   -0.603974
   7 O     8.0000    0    15.999    1.323936   -4.788196    1.745778
   8 O     8.0000    0    15.999   -3.568575    2.454786    3.081073
   9 O     8.0000    0    15.999   -2.412450   -3.085078    0.530972
  10 C     6.0000    0    12.011    0.151521   -2.948102    0.907339
  11 C     6.0000    0    12.011   -4.231607    2.061161    0.896061
  12 O     8.0000    0    15.999   -2.563391    1.682934   -1.129365
  13 H     1.0000    0     1.008   -2.931602   -4.803567    1.036785
  14 H     1.0000    0     1.008    4.979439   -1.971707    1.340259
  15 H     1.0000    0     1.008    0.369792    5.532703   -1.846441
  16 H     1.0000    0     1.008    7.318461    1.965918    0.424237
  17 H     1.0000    0     1.008    5.014941    5.743677   -1.182395
  18 H     1.0000    0     1.008   -7.262833    0.063655   -0.878655
  19 H     1.0000    0     1.008   -8.203091    2.168538    1.572181
  20 H     1.0000    0     1.008   -7.276000    3.393166   -1.421425

--------------------------------
INTERNAL COORDINATES (ANGSTROEM)
--------------------------------
 C      0   0   0   0.000000     0.000     0.000
 C      1   0   0   2.788687     0.000     0.000
 C      1   2   0   1.395451    60.181     0.000
 C      2   1   3   1.396762    60.095     0.090
 C      2   1   3   4.556581   104.102   191.474
 C      1   2   3   1.406583    60.953   179.936
 C      2   1   3   1.397380    59.992   180.383
 O      6   1   2   2.406431    90.774   180.700
 O      5   2   1   2.433397    50.042    63.278
 O      8   6   1   2.266025    62.308   180.751
 C      8   6   1   1.236904    30.798   181.346
 C      9   5   2   1.226142    30.135   340.413
 O     12   9   5   1.402904   124.376   179.937
 H     10   8   6   0.986964    78.432   180.288
 H      1   2   3   1.083804   179.756    33.315
 H      2   1   3   1.083778   179.369   131.752
 H      3   1   2   1.084892   119.886   179.822
 H      4   2   1   1.085390   119.937   179.879
 H      5   2   1   1.093533   108.268   308.478
 H      5   2   1   1.091817   132.212    88.410
 H      5   2   1   1.094608    85.043   199.728

---------------------------
INTERNAL COORDINATES (A.U.)
---------------------------
 C      0   0   0   0.000000     0.000     0.000
 C      1   0   0   5.269855     0.000     0.000
 C      1   2   0   2.637021    60.181     0.000
 C      2   1   3   2.639497    60.095     0.090
 C      2   1   3   8.610690   104.102   191.474
 C      1   2   3   2.658057    60.953   179.936
 C      2   1   3   2.640666    59.992   180.383
 O      6   1   2   4.547495    90.774   180.700
 O      5   2   1   4.598453    50.042    63.278
 O      8   6   1   4.282166    62.308   180.751
 C      8   6   1   2.337409    30.798   181.346
 C      9   5   2   2.317073    30.135   340.413
 O     12   9   5   2.651104   124.376   179.937
 H     10   8   6   1.865092    78.432   180.288
 H      1   2   3   2.048093   179.756    33.315
 H      2   1   3   2.048043   179.369   131.752
 H      3   1   2   2.050148   119.886   179.822
 H      4   2   1   2.051090   119.937   179.879
 H      5   2   1   2.066478   108.268   308.478
 H      5   2   1   2.063236   132.212    88.410
 H      5   2   1   2.068509    85.043   199.728


Diagonalization of the overlap matrix:
Smallest eigenvalue                        ... 5.467e-04
Time for diagonalization                   ...    0.004 sec
Time for construction of square roots      ...    0.001 sec
Total time needed                          ...    0.006 sec

-------------------
DFT GRID GENERATION
-------------------

General Integration Accuracy     IntAcc      ...  4.340
Radial Grid Type                 RadialGrid  ... Gauss-Chebyshev
Angular Grid (max. acc.)         AngularGrid ... Lebedev-110
Angular grid pruning method      GridPruning ... 3 (G Style)
Weight generation scheme         WeightScheme... Becke
Basis function cutoff            BFCut       ...    1.0000e-11
Integration weight cutoff        WCut        ...    1.0000e-14
Grids for H and He will be reduced by one unit

# of grid points (after initial pruning)     ...  28120 (   0.0 sec)
# of grid points (after weights+screening)   ...  25887 (   0.2 sec)
nearest neighbour list constructed           ...    0.0 sec
Grid point re-assignment to atoms done       ...    0.0 sec
Grid point division into batches done        ...    0.0 sec
Reduced shell lists constructed in    0.4 sec

Total number of grid points                  ...    25887
Total number of batches                      ...      413
Average number of points per batch           ...       62
Average number of grid points per atom       ...     1233
Average number of shells per batch           ...    50.31 (62.11%)
Average number of basis functions per batch  ...    89.00 (66.92%)
Average number of large shells per batch     ...    36.02 (71.60%)
Average number of large basis fcns per batch ...    65.24 (73.30%)
Maximum spatial batch extension              ...  18.36, 21.52, 25.60 au
Average spatial batch extension              ...   3.33,  3.56,  4.04 au

Time for grid setup =    0.632 sec

--------------
SCF ITERATIONS
--------------
ITER       Energy         Delta-E        Max-DP      RMS-DP      [F,P]     Damp
               ***  Starting incremental Fock matrix formation  ***
  0   -648.1226593534   0.000000000000 0.01091634  0.00052547  0.0605072 0.7000
  1   -648.1285179493  -0.005858595893 0.01068845  0.00048589  0.0479072 0.7000
                               ***Turning on DIIS***
  2   -648.1331674040  -0.004649454651 0.02862402  0.00126665  0.0360782 0.0000
  3   -648.1449579778  -0.011790573824 0.00355628  0.00019256  0.0051414 0.0000
                      *** Initiating the SOSCF procedure ***
                           *** Shutting down DIIS ***
                      *** Re-Reading the Fockian *** 
                      *** Removing any level shift *** 
ITER      Energy       Delta-E        Grad      Rot      Max-DP    RMS-DP
  4   -648.14512963  -0.0001716476  0.000678  0.000678  0.001348  0.000074
               *** Restarting incremental Fock matrix formation ***
  5   -648.14515724  -0.0000276180  0.000426  0.001895  0.001247  0.000057
  6   -648.14516339  -0.0000061446  0.000180  0.001115  0.000759  0.000038
  7   -648.14516413  -0.0000007397  0.000172  0.000525  0.000384  0.000021
  8   -648.14516529  -0.0000011664  0.000107  0.000252  0.000469  0.000015
  9   -648.14516511   0.0000001798  0.000110  0.000192  0.000260  0.000010
 10   -648.14516550  -0.0000003836  0.000016  0.000035  0.000078  0.000004
 11   -648.14516549   0.0000000118  0.000021  0.000025  0.000051  0.000002
 12   -648.14516551  -0.0000000251  0.000010  0.000027  0.000033  0.000001
 13   -648.14516551   0.0000000033  0.000018  0.000018  0.000022  0.000001
                  ***Gradient check signals convergence***
              ***Rediagonalizing the Fockian in SOSCF/NRSCF***

               *****************************************************
               *                     SUCCESS                       *
               *           SCF CONVERGED AFTER  14 CYCLES          *
               *****************************************************

Setting up the final grid:

General Integration Accuracy     IntAcc      ...  4.670
Radial Grid Type                 RadialGrid  ... Gauss-Chebyshev
Angular Grid (max. acc.)         AngularGrid ... Lebedev-302
Angular grid pruning method      GridPruning ... 3 (G Style)
Weight generation scheme         WeightScheme... Becke
Basis function cutoff            BFCut       ...    1.0000e-11
Integration weight cutoff        WCut        ...    1.0000e-14
Grids for H and He will be reduced by one unit

# of grid points (after initial pruning)     ... 107908 (   0.1 sec)
# of grid points (after weights+screening)   ...  97564 (   0.9 sec)
nearest neighbour list constructed           ...    0.0 sec
Grid point re-assignment to atoms done       ...    0.0 sec
Grid point division into batches done        ...    0.2 sec
Reduced shell lists constructed in    1.5 sec

Total number of grid points                  ...    97564
Total number of batches                      ...     1534
Average number of points per batch           ...       63
Average number of grid points per atom       ...     4646
Average number of shells per batch           ...    45.54 (56.22%)
Average number of basis functions per batch  ...    80.92 (60.84%)
Average number of large shells per batch     ...    31.90 (70.06%)
Average number of large basis fcns per batch ...    58.02 (71.70%)
Maximum spatial batch extension              ...  16.58, 19.92, 21.18 au
Average spatial batch extension              ...   2.27,  2.39,  2.58 au

Final grid set up in    2.5 sec
Final integration                            ... done (   1.1 sec)
Change in XC energy                          ...     0.000078966
Integrated number of electrons               ...    93.999976431
Previous integrated no of electrons          ...    94.002538813
Total Energy       :         -648.14508655 Eh          -17636.92445 eV
  Last Energy change         ...   -4.2527e-09  Tolerance :   1.0000e-08
  Last MAX-Density change    ...    5.0725e-06  Tolerance :   1.0000e-07
             **** THE GBW FILE WAS UPDATED (b3lyp.gbw) ****
             **** DENSITY FILE WAS UPDATED (b3lyp.scfp.tmp) ****
             **** ENERGY FILE WAS UPDATED (b3lyp.en.tmp) ****
Total SCF time: 0 days 0 hours 0 min 57 sec 

-------------------------   --------------------
FINAL SINGLE POINT ENERGY      -648.145086546434
-------------------------   --------------------

------------------------------------------------------------------------------
                         ORCA SCF GRADIENT CALCULATION
------------------------------------------------------------------------------

Gradient of the Kohn-Sham DFT energy:
Kohn-Sham wavefunction type      ... RKS
Hartree-Fock exchange scaling    ...    0.200
Number of operators              ...    1
Number of atoms                  ...   21
Basis set dimensions             ...  133
Integral neglect threshold       ... 2.5e-11
Integral primitive cutoff        ... 2.5e-12

Nuclear repulsion gradient       ... done
One Electron Gradient            ... done
Pre-screening matrix             ... done
Starting the two electron gradient:
Two electron gradient done
Exchange-correlation gradient    ... done

------------------
CARTESIAN GRADIENT
------------------

   1   C   :   -0.004981226   -0.003955417    0.000512544
   2   C   :   -0.000348802   -0.000161699    0.000039767
   3   C   :   -0.000204602    0.001766827   -0.000734895
   4   C   :   -0.000192320   -0.000171585    0.000475866
   5   C   :   -0.000931287   -0.000858360   -0.002968508
   6   C   :    0.003225024    0.005676598   -0.001421208
   7   C   :   -0.001030817   -0.002928132    0.004530643
   8   O   :   -0.002929072    0.004042634   -0.000354547
   9   O   :   -0.005682680   -0.000051369    0.002199790
  10   O   :    0.003340060    0.006626553   -0.001030736
  11   C   :   -0.004128617   -0.009708478   -0.000419747
  12   C   :    0.013506578    0.002617625   -0.000027414
  13   O   :   -0.005992313   -0.003074754   -0.006274029
  14   H   :    0.002786868   -0.003303640    0.001288671
  15   H   :    0.002974092    0.001630728    0.000068334
  16   H   :    0.001845445    0.001137642   -0.000344509
  17   H   :    0.000126436    0.000177783   -0.000022465
  18   H   :    0.000586420   -0.000164523    0.000108314
  19   H   :   -0.000728330   -0.000718144    0.002526923
  20   H   :   -0.001363181   -0.000381058   -0.000190812
  21   H   :    0.000136978    0.001791467    0.002172384

Norm of the cartesian gradient     ...    0.026237437
RMS gradient                       ...    0.003305606
MAX gradient                       ...    0.013506578

-------
TIMINGS
-------

Total SCF gradient time            ...       33.383 sec

One electron gradient       ....       0.212 sec  (  0.6%)
Prescreening matrices       ....       0.059 sec  (  0.2%)
Two electron gradient       ....      24.914 sec  ( 74.6%)
XC gradient                 ....       7.816 sec  ( 23.4%)
------------------------------------------------------------------------------
                         ORCA GEOMETRY RELAXATION STEP
------------------------------------------------------------------------------

Reading the OPT-File                    .... done
Getting information on internals        .... done
Copying old internal coords+grads       .... done
Making the new internal coordinates     .... (new redundants).... done
Validating the new internal coordinates .... (new redundants).... done
Calculating the B-matrix                .... done
Calculating the G,G- and P matrices     .... done
Transforming gradient to internals      .... done
Projecting the internal gradient        .... done
Number of atoms                         ....  21
Number of internal coordinates          ....  93
Current Energy                          ....  -648.145086546 Eh
Current gradient norm                   ....     0.026237437 Eh/bohr
Maximum allowed component of the step   ....  0.300
Current trust radius                    ....  0.300
Updating the Hessian (BFGS)             .... done
Forming the augmented Hessian           .... done
Diagonalizing the augmented Hessian     .... done
Last element of RFO vector              ....  0.983759908
Lowest eigenvalues of augmented Hessian:
 -0.001806191  0.012935022  0.013317272  0.015525525  0.019607716
Length of the computed step             ....  0.182452438
The final length of the internal step   ....  0.182452438
Converting the step to cartesian space:
 Initial RMS(Int)=    0.0189194365
Transforming coordinates:
 Iter   0:  RMS(Cart)=    0.0630328772 RMS(Int)=    1.2973754619
 Iter   1:  RMS(Cart)=    0.0023613324 RMS(Int)=    0.0010985884
 Iter   2:  RMS(Cart)=    0.0001548527 RMS(Int)=    0.0000734876
 Iter   3:  RMS(Cart)=    0.0000140567 RMS(Int)=    0.0000069153
 Iter   4:  RMS(Cart)=    0.0000009511 RMS(Int)=    0.0000005424
 Iter   5:  RMS(Cart)=    0.0000000874 RMS(Int)=    0.0000000499
done
Storing new coordinates                 .... done

                                .--------------------.
          ----------------------|Geometry convergence|---------------------
          Item                value                 Tolerance   Converged
          -----------------------------------------------------------------
          Energy change      -0.00778735            0.00000500      NO
          RMS gradient        0.00205111            0.00010000      NO
          MAX gradient        0.00887927            0.00030000      NO
          RMS step            0.01891944            0.00200000      NO
          MAX step            0.07420126            0.00400000      NO
          ....................................................
          Max(Bonds)      0.0084      Max(Angles)    1.91
          Max(Dihed)        4.25      Max(Improp)    0.00
          -----------------------------------------------------------------

The optimization has not yet converged - more geometry cycles are needed


    ---------------------------------------------------------------------------
                         Redundant Internal Coordinates
                            (Angstroem and degrees)

        Definition                    Value    dE/dq     Step     New-Value
    ----------------------------------------------------------------------------
     1. B(C   2,C   0)                1.3955  0.000915 -0.0012    1.3943   
     2. B(C   3,C   2)                1.3984 -0.001987  0.0025    1.4010   
     3. B(C   3,C   1)                1.3968 -0.000684  0.0010    1.3977   
     4. B(C   5,C   0)                1.4066 -0.000999  0.0012    1.4078   
     5. B(C   6,C   5)                1.4071 -0.001045  0.0015    1.4086   
     6. B(C   6,C   1)                1.3974  0.002288 -0.0028    1.3946   
     7. B(C  10,C   5)                1.4857  0.002324 -0.0035    1.4822   
     8. B(C  10,O   9)                1.3732 -0.006275  0.0084    1.3816   
     9. B(C  10,O   7)                1.2369 -0.004780  0.0043    1.2412   
    10. B(C  11,O   8)                1.2261  0.000426 -0.0001    1.2260   
    11. B(C  11,C   4)                1.5047  0.002269 -0.0033    1.5014   
    12. B(O  12,C  11)                1.4029  0.000002  0.0009    1.4038   
    13. B(O  12,C   6)                1.4189  0.001571 -0.0005    1.4184   
    14. B(H  13,O   9)                0.9870  0.002616 -0.0032    0.9837   
    15. B(H  14,C   0)                1.0838  0.000179 -0.0007    1.0831   
    16. B(H  15,C   1)                1.0838  0.000116 -0.0004    1.0834   
    17. B(H  16,C   2)                1.0849  0.000127 -0.0004    1.0845   
    18. B(H  17,C   3)                1.0854  0.000134 -0.0004    1.0850   
    19. B(H  18,C   4)                1.0935 -0.000269  0.0005    1.0941   
    20. B(H  19,C   4)                1.0918  0.000641 -0.0014    1.0904   
    21. B(H  20,C   4)                1.0946 -0.000205  0.0005    1.0951   
    22. A(C   5,C   0,H  14)          119.25  0.003822   -0.84    118.41   
    23. A(C   2,C   0,C   5)          121.13 -0.000700    0.15    121.29   
    24. A(C   2,C   0,H  14)          119.61 -0.003122    0.69    120.30   
[...]
Integrated number of electrons               ...    93.999975055
Previous integrated no of electrons          ...    94.003708545

----------------
TOTAL SCF ENERGY
----------------

Total Energy       :         -648.14645222 Eh          -17636.96161 eV

Components:
Nuclear Repulsion  :          778.57981769 Eh           21186.23393 eV
Electronic Energy  :        -1426.72626991 Eh          -38823.19554 eV

One Electron Energy:        -2428.46269551 Eh          -66081.82948 eV
Two Electron Energy:         1001.73642560 Eh           27258.63394 eV

Virial components:
Potential Energy   :        -1292.97728530 Eh          -35183.70064 eV
Kinetic Energy     :          644.83083308 Eh           17546.73903 eV
Virial Ratio       :            2.00514184


DFT components:
N(Alpha)           :       46.999987527655 electrons
N(Beta)            :       46.999987527655 electrons
N(Total)           :       93.999975055311 electrons
E(X)               :      -65.493287528383 Eh       
E(C)               :       -3.828401478586 Eh       
E(XC)              :      -69.321689006969 Eh       

---------------
SCF CONVERGENCE
---------------

  Last Energy change         ...   -1.2683e-09  Tolerance :   1.0000e-08
  Last MAX-Density change    ...    1.2569e-06  Tolerance :   1.0000e-07
  Last RMS-Density change    ...    6.8149e-08  Tolerance :   5.0000e-09
  Last Orbital Gradient      ...    4.6328e-07  Tolerance :   1.0000e-05
  Last Orbital Rotation      ...    2.1567e-06  Tolerance :   1.0000e-05

             **** THE GBW FILE WAS UPDATED (b3lyp.gbw) ****
             **** DENSITY FILE WAS UPDATED (b3lyp.scfp.tmp) ****
             **** ENERGY FILE WAS UPDATED (b3lyp.en.tmp) ****
----------------
ORBITAL ENERGIES
----------------

  NO   OCC          E(Eh)            E(eV) 
   0   2.0000     -19.198006      -522.4043 
   1   2.0000     -19.195651      -522.3402 
   2   2.0000     -19.148082      -521.0458 
   3   2.0000     -19.147114      -521.0195 
   4   2.0000     -10.337502      -281.2977 
   5   2.0000     -10.333685      -281.1939 
   6   2.0000     -10.272480      -279.5284 
   7   2.0000     -10.222139      -278.1585 
   8   2.0000     -10.210092      -277.8307 
   9   2.0000     -10.206061      -277.7210 
  10   2.0000     -10.204134      -277.6686 
  11   2.0000     -10.201867      -277.6069 
  12   2.0000     -10.195022      -277.4206 
  13   2.0000      -1.119679       -30.4680 
  14   2.0000      -1.110405       -30.2157 
  15   2.0000      -1.036542       -28.2057 
  16   2.0000      -1.026650       -27.9366 
  17   2.0000      -0.878567       -23.9070 
  18   2.0000      -0.788458       -21.4550 
  19   2.0000      -0.782597       -21.2955 
  20   2.0000      -0.747791       -20.3484 
  21   2.0000      -0.680203       -18.5093 
  22   2.0000      -0.643591       -17.5130 
  23   2.0000      -0.610376       -16.6092 
  24   2.0000      -0.587896       -15.9975 
  25   2.0000      -0.528452       -14.3799 
  26   2.0000      -0.506530       -13.7834 
  27   2.0000      -0.495480       -13.4827 
  28   2.0000      -0.482833       -13.1385 
  29   2.0000      -0.469577       -12.7778 
  30   2.0000      -0.467526       -12.7220 
  31   2.0000      -0.456772       -12.4294 
  32   2.0000      -0.449908       -12.2426 
  33   2.0000      -0.446708       -12.1555 
  34   2.0000      -0.414829       -11.2881 
  35   2.0000      -0.405472       -11.0335 
  36   2.0000      -0.400444       -10.8966 
  37   2.0000      -0.389805       -10.6071 
  38   2.0000      -0.380134       -10.3440 
  39   2.0000      -0.365667        -9.9503 
  40   2.0000      -0.360338        -9.8053 
  41   2.0000      -0.321721        -8.7545 
  42   2.0000      -0.310893        -8.4598 
  43   2.0000      -0.285062        -7.7569 
  44   2.0000      -0.281298        -7.6545 
  45   2.0000      -0.269700        -7.3389 
  46   2.0000      -0.257064        -6.9951 
  47   0.0000      -0.061014        -1.6603 
  48   0.0000      -0.016910        -0.4601 
  49   0.0000      -0.001463        -0.0398 
  50   0.0000       0.042467         1.1556 
  51   0.0000       0.062261         1.6942 
  52   0.0000       0.087782         2.3887 
  53   0.0000       0.114421         3.1136 
  54   0.0000       0.131845         3.5877 
  55   0.0000       0.143812         3.9133 
  56   0.0000       0.154189         4.1957 
  57   0.0000       0.161515         4.3950 
  58   0.0000       0.170323         4.6347 
  59   0.0000       0.175857         4.7853 
  60   0.0000       0.186667         5.0795 
  61   0.0000       0.217529         5.9193 
  62   0.0000       0.230929         6.2839 
  63   0.0000       0.243922         6.6375 
  64   0.0000       0.272122         7.4048 
  65   0.0000       0.283538         7.7155 
  66   0.0000       0.314864         8.5679 
  67   0.0000       0.318322         8.6620 
  68   0.0000       0.340297         9.2600 
  69   0.0000       0.362567         9.8659 
  70   0.0000       0.397422        10.8144 
  71   0.0000       0.495237        13.4761 
  72   0.0000       0.501817        13.6551 
  73   0.0000       0.514906        14.0113 
  74   0.0000       0.536103        14.5881 
  75   0.0000       0.537736        14.6325 
  76   0.0000       0.545456        14.8426 
  77   0.0000       0.568090        15.4585 
  78   0.0000       0.576920        15.6988 
  79   0.0000       0.585226        15.9248 
  80   0.0000       0.589689        16.0463 
  81   0.0000       0.603176        16.4132 
  82   0.0000       0.621376        16.9085 
  83   0.0000       0.624790        17.0014 
  84   0.0000       0.632705        17.2168 
  85   0.0000       0.637569        17.3491 
  86   0.0000       0.647118        17.6090 
  87   0.0000       0.651775        17.7357 
  88   0.0000       0.665172        18.1003 
  89   0.0000       0.677241        18.4287 
  90   0.0000       0.691193        18.8083 
  91   0.0000       0.717243        19.5172 
  92   0.0000       0.751944        20.4614 
  93   0.0000       0.783305        21.3148 
  94   0.0000       0.813459        22.1354 
  95   0.0000       0.816341        22.2138 
  96   0.0000       0.829589        22.5743 
  97   0.0000       0.857502        23.3338 
  98   0.0000       0.863633        23.5006 
  99   0.0000       0.877722        23.8840 
 100   0.0000       0.887024        24.1371 
 101   0.0000       0.906675        24.6719 
 102   0.0000       0.922754        25.1094 
 103   0.0000       0.935104        25.4455 
 104   0.0000       0.951123        25.8814 
 105   0.0000       0.956559        26.0293 
 106   0.0000       0.964673        26.2501 
 107   0.0000       0.987322        26.8664 
 108   0.0000       0.990078        26.9414 
 109   0.0000       1.019628        27.7455 
 110   0.0000       1.036191        28.1962 
 111   0.0000       1.040529        28.3142 
 112   0.0000       1.054079        28.6829 
 113   0.0000       1.093544        29.7569 
 114   0.0000       1.114087        30.3159 
 115   0.0000       1.122656        30.5490 
 116   0.0000       1.159941        31.5636 
 117   0.0000       1.163188        31.6520 
 118   0.0000       1.204327        32.7714 
 119   0.0000       1.210676        32.9442 
 120   0.0000       1.263317        34.3766 
 121   0.0000       1.295447        35.2509 
 122   0.0000       1.327821        36.1318 
 123   0.0000       1.424892        38.7733 
 124   0.0000       1.448291        39.4100 
 125   0.0000       1.487506        40.4771 
 126   0.0000       1.506555        40.9954 
 127   0.0000       1.587587        43.2004 
 128   0.0000       1.780183        48.4413 
 129   0.0000       1.829541        49.7843 
 130   0.0000       1.911762        52.0217 
 131   0.0000       2.066520        56.2329 
 132   0.0000       2.107324        57.3432 

                    ********************************
                    * MULLIKEN POPULATION ANALYSIS *
                    ********************************

-----------------------
MULLIKEN ATOMIC CHARGES
-----------------------
   0 C :   -0.160289
   1 C :   -0.114735
   2 C :   -0.116113
   3 C :   -0.118166
   4 C :   -0.456581
   5 C :    0.118181
   6 C :    0.258971
   7 O :   -0.408173
   8 O :   -0.398069
   9 O :   -0.567997
  10 C :    0.435622
  11 C :    0.533485
  12 O :   -0.552126
  13 H :    0.391010
  14 H :    0.178621
  15 H :    0.147483
  16 H :    0.144209
  17 H :    0.142656
  18 H :    0.189716
  19 H :    0.174259
  20 H :    0.178035
Sum of atomic charges:   -0.0000000

--------------------------------
MULLIKEN REDUCED ORBITAL CHARGES
--------------------------------
  0 C s       :     3.230538  s :     3.230538
      pz      :     0.951584  p :     2.929751
      px      :     0.965766
      py      :     1.012400
  1 C s       :     3.199213  s :     3.199213
      pz      :     1.015935  p :     2.915522
      px      :     0.931262
      py      :     0.968324
  2 C s       :     3.195293  s :     3.195293
      pz      :     0.992223  p :     2.920819
      px      :     1.010245
      py      :     0.918352
  3 C s       :     3.208926  s :     3.208926
      pz      :     0.962122  p :     2.909240
      px      :     0.953217
      py      :     0.993901
  4 C s       :     3.339294  s :     3.339294
      pz      :     1.076331  p :     3.117287
      px      :     0.936738
      py      :     1.104218
  5 C s       :     3.138736  s :     3.138736
      pz      :     1.034100  p :     2.743083
      px      :     0.870260
      py      :     0.838723
  6 C s       :     3.140260  s :     3.140260
      pz      :     0.977799  p :     2.600769
      px      :     0.622271
      py      :     1.000698
  7 O s       :     3.944515  s :     3.944515
      pz      :     1.400599  p :     4.463658
      px      :     1.630111
      py      :     1.432948
  8 O s       :     3.954237  s :     3.954237
      pz      :     1.335345  p :     4.443832
      px      :     1.719899
      py      :     1.388587
  9 O s       :     3.918973  s :     3.918973
      pz      :     1.779286  p :     4.649023
      px      :     1.376045
      py      :     1.493692
 10 C s       :     2.974163  s :     2.974163
      pz      :     0.848956  p :     2.590215
      px      :     0.757717
      py      :     0.983542
 11 C s       :     3.015070  s :     3.015070
      pz      :     0.731525  p :     2.451445
      px      :     0.905181
      py      :     0.814739
 12 O s       :     3.935805  s :     3.935805
      pz      :     1.581468  p :     4.616321
      px      :     1.261609
      py      :     1.773244
 13 H s       :     0.608990  s :     0.608990
 14 H s       :     0.821379  s :     0.821379
 15 H s       :     0.852517  s :     0.852517
 16 H s       :     0.855791  s :     0.855791
 17 H s       :     0.857344  s :     0.857344
 18 H s       :     0.810284  s :     0.810284
 19 H s       :     0.825741  s :     0.825741
 20 H s       :     0.821965  s :     0.821965


                     *******************************
                     * LOEWDIN POPULATION ANALYSIS *
                     *******************************

----------------------
LOEWDIN ATOMIC CHARGES
----------------------
   0 C :   -0.070262
   1 C :   -0.123522
   2 C :   -0.116369
   3 C :   -0.084712
   4 C :   -0.342210
   5 C :   -0.085475
   6 C :    0.145959
   7 O :   -0.292874
   8 O :   -0.264453
   9 O :   -0.332410
  10 C :    0.258165
  11 C :    0.277569
  12 O :   -0.235278
  13 H :    0.307764
  14 H :    0.144315
  15 H :    0.134304
  16 H :    0.126201
  17 H :    0.125928
  18 H :    0.148787
  19 H :    0.136376
  20 H :    0.142197

-------------------------------
LOEWDIN REDUCED ORBITAL CHARGES
-------------------------------
  0 C s       :     2.944587  s :     2.944587
      pz      :     0.966995  p :     3.125675
      px      :     1.064151
      py      :     1.094530
  1 C s       :     2.945373  s :     2.945373
      pz      :     1.026417  p :     3.178149
      px      :     1.081744
      py      :     1.069988
  2 C s       :     2.940201  s :     2.940201
      pz      :     1.011795  p :     3.176168
      px      :     1.097249
      py      :     1.067124
  3 C s       :     2.945700  s :     2.945700
      pz      :     0.976291  p :     3.139012
      px      :     1.080595
      py      :     1.082126
  4 C s       :     2.995218  s :     2.995218
      pz      :     1.137668  p :     3.346993
      px      :     1.060813
      py      :     1.148511
  5 C s       :     2.914957  s :     2.914957
      pz      :     1.053866  p :     3.170518
      px      :     1.076449
      py      :     1.040203
  6 C s       :     2.898534  s :     2.898534
      pz      :     1.000716  p :     2.955507
      px      :     0.862242
      py      :     1.092549
  7 O s       :     3.641052  s :     3.641052
      pz      :     1.425999  p :     4.651822
      px      :     1.705755
      py      :     1.520068
  8 O s       :     3.635798  s :     3.635798
      pz      :     1.454106  p :     4.628655
      px      :     1.778557
      py      :     1.395993
  9 O s       :     3.591272  s :     3.591272
      pz      :     1.782832  p :     4.741137
      px      :     1.426098
      py      :     1.532208
 10 C s       :     2.900945  s :     2.900945
      pz      :     0.874656  p :     2.840890
      px      :     0.920222
      py      :     1.046011
 11 C s       :     2.918740  s :     2.918740
      pz      :     0.982821  p :     2.803690
      px      :     0.999794
      py      :     0.821075
 12 O s       :     3.541861  s :     3.541861
      pz      :     1.619659  p :     4.693417
      px      :     1.293711
      py      :     1.780048
 13 H s       :     0.692236  s :     0.692236
 14 H s       :     0.855685  s :     0.855685
 15 H s       :     0.865696  s :     0.865696
 16 H s       :     0.873799  s :     0.873799
 17 H s       :     0.874072  s :     0.874072
 18 H s       :     0.851213  s :     0.851213
 19 H s       :     0.863624  s :     0.863624
 20 H s       :     0.857803  s :     0.857803


                      *****************************
                      * MAYER POPULATION ANALYSIS *
                      *****************************

  NA   - Mulliken gross atomic population
  ZA   - Total nuclear charge
  QA   - Mulliken gross atomic charge
  VA   - Mayer's total valence
  BVA  - Mayer's bonded valence
  FA   - Mayer's free valence

  ATOM       NA         ZA         QA         VA         BVA        FA
  0 C      6.1603     6.0000    -0.1603     3.8925     3.8925    -0.0000
  1 C      6.1147     6.0000    -0.1147     3.8655     3.8655    -0.0000
  2 C      6.1161     6.0000    -0.1161     3.8616     3.8616    -0.0000
  3 C      6.1182     6.0000    -0.1182     3.8861     3.8861    -0.0000
  4 C      6.4566     6.0000    -0.4566     3.7289     3.7289    -0.0000
  5 C      5.8818     6.0000     0.1182     3.6885     3.6885     0.0000
  6 C      5.7410     6.0000     0.2590     3.7691     3.7691    -0.0000
  7 O      8.4082     8.0000    -0.4082     2.0426     2.0426     0.0000
  8 O      8.3981     8.0000    -0.3981     2.0470     2.0470    -0.0000
  9 O      8.5680     8.0000    -0.5680     1.8144     1.8144    -0.0000
 10 C      5.5644     6.0000     0.4356     3.8502     3.8502    -0.0000
 11 C      5.4665     6.0000     0.5335     3.7887     3.7887    -0.0000
 12 O      8.5521     8.0000    -0.5521     1.7767     1.7767    -0.0000
 13 H      0.6090     1.0000     0.3910     0.8324     0.8324    -0.0000
 14 H      0.8214     1.0000     0.1786     0.9437     0.9437    -0.0000
 15 H      0.8525     1.0000     0.1475     0.9435     0.9435    -0.0000
 16 H      0.8558     1.0000     0.1442     0.9414     0.9414    -0.0000
 17 H      0.8573     1.0000     0.1427     0.9411     0.9411    -0.0000
 18 H      0.8103     1.0000     0.1897     0.9320     0.9320    -0.0000
 19 H      0.8257     1.0000     0.1743     0.9359     0.9359    -0.0000
 20 H      0.8220     1.0000     0.1780     0.9330     0.9330    -0.0000

  Mayer bond orders larger than 0.1
B(  0-C ,  2-C ) :   1.4414 B(  0-C ,  5-C ) :   1.3676 B(  0-C , 14-H ) :   0.9101 
B(  1-C ,  3-C ) :   1.4307 B(  1-C ,  6-C ) :   1.4191 B(  1-C , 15-H ) :   0.9216 
B(  2-C ,  3-C ) :   1.4167 B(  2-C , 16-H ) :   0.9307 B(  3-C , 17-H ) :   0.9284 
B(  4-C , 11-C ) :   0.9469 B(  4-C , 18-H ) :   0.9270 B(  4-C , 19-H ) :   0.9417 
B(  4-C , 20-H ) :   0.9297 B(  5-C ,  6-C ) :   1.3117 B(  5-C , 10-C ) :   0.9402 
B(  6-C , 12-O ) :   0.8248 B(  7-O , 10-C ) :   1.8612 B(  8-O , 11-C ) :   1.9221 
B(  9-O , 10-C ) :   0.9672 B(  9-O , 13-H ) :   0.7736 B( 11-C , 12-O ) :   0.8643 


-------
TIMINGS
-------

Total SCF time: 0 days 0 hours 0 min 34 sec 

Total time                  ....      34.367 sec
Sum of individual times     ....      34.370 sec  (100.0%)

Fock matrix formation       ....      31.115 sec  ( 90.5%)
  Coulomb formation         ....      27.147 sec  ( 87.2% of F)
  XC integration            ....       3.964 sec  ( 12.7% of F)
    Basis function eval.    ....       1.962 sec  ( 49.5% of XC)
    Density eval.           ....       0.853 sec  ( 21.5% of XC)
    XC-Functional eval.     ....       0.377 sec  (  9.5% of XC)
    XC-Potential eval.      ....       0.575 sec  ( 14.5% of XC)
Diagonalization             ....       0.011 sec  (  0.0%)
Density matrix formation    ....       0.004 sec  (  0.0%)
Population analysis         ....       0.009 sec  (  0.0%)
Initial guess               ....       0.019 sec  (  0.1%)
Orbital Transformation      ....       0.000 sec  (  0.0%)
Orbital Orthonormalization  ....       0.018 sec  (  0.1%)
DIIS solution               ....       0.001 sec  (  0.0%)
SOSCF solution              ....       0.043 sec  (  0.1%)
Grid generation             ....       3.167 sec  (  9.2%)

-------------------------   --------------------
FINAL SINGLE POINT ENERGY      -648.146452218985
-------------------------   --------------------

                                *** OPTIMIZATION RUN DONE ***

                            ***************************************
                            *     ORCA property calculations      *
                            ***************************************

                                    ---------------------
                                    Active property flags
                                    ---------------------
   (+) Dipole Moment


------------------------------------------------------------------------------
                       ORCA ELECTRIC PROPERTIES CALCULATION
------------------------------------------------------------------------------

Dipole Moment Calculation                       ... on
Quadrupole Moment Calculation                   ... off
Polarizability Calculation                      ... off
GBWName                                         ... b3lyp.gbw
Electron density file                           ... b3lyp.scfp.tmp

-------------
DIPOLE MOMENT
-------------
                                X             Y             Z
Electronic contribution:      2.27334      -3.08132       1.47468
Nuclear contribution   :     -2.51370       3.61802      -2.37465
                        -----------------------------------------
Total Dipole Moment    :     -0.24036       0.53671      -0.89997
                        -----------------------------------------
Magnitude (a.u.)       :      1.07507
Magnitude (Debye)      :      2.73260


Timings for individual modules:

Sum of individual times         ...     1082.097 sec (=  18.035 min)
GTO integral calculation        ...        5.257 sec (=   0.088 min)   0.5 %
SCF iterations                  ...      628.353 sec (=  10.473 min)  58.1 %
SCF Gradient evaluation         ...      445.749 sec (=   7.429 min)  41.2 %
Geometry relaxation             ...        2.737 sec (=   0.046 min)   0.3 %
                             ****ORCA TERMINATED NORMALLY****
TOTAL RUN TIME: 0 days 0 hours 18 minutes 3 seconds 199 msec
