

     ************************************************************************
     *************** Dalton - An Electronic Structure Program ***************
     ************************************************************************

    This is output from DALTON (Release Dalton2013 patch 0)
   ----------------------------------------------------------------------------
    NOTE:
     
    Dalton is an experimental code for the evaluation of molecular
    properties using (MC)SCF, DFT, CI, and CC wave functions.
    The authors accept no responsibility for the performance of
    the code or for the correctness of the results.
     
    The code (in whole or part) is provided under a licence and
    is not to be reproduced for further distribution without
    the written permission of the authors or their representatives.
     
    See the home page "http://daltonprogram.org" for further information.
     
    If results obtained with this code are published,
    the appropriate citations would be both of:
     
       K. Aidas, C. Angeli, K. L. Bak, V. Bakken, R. Bast,
       L. Boman, O. Christiansen, R. Cimiraglia, S. Coriani,
       P. Dahle, E. K. Dalskov, U. Ekstroem, T. Enevoldsen,
       J. J. Eriksen, P. Ettenhuber, B. Fernandez, L. Ferrighi,
       H. Fliegl, L. Frediani, K. Hald, A. Halkier, C. Haettig,
       H. Heiberg, T. Helgaker, A. C. Hennum, H. Hettema,
       E. Hjertenaes, S. Hoest, I.-M. Hoeyvik, M. F. Iozzi,
       B. Jansik, H. J. Aa. Jensen, D. Jonsson, P. Joergensen,
       J. Kauczor, S. Kirpekar, T. Kjaergaard, W. Klopper,
       S. Knecht, R. Kobayashi, H. Koch, J. Kongsted, A. Krapp,
       K. Kristensen, A. Ligabue, O. B. Lutnaes, J. I. Melo,
       K. V. Mikkelsen, R. H. Myhre, C. Neiss, C. B. Nielsen,
       P. Norman, J. Olsen, J. M. H. Olsen, A. Osted,
       M. J. Packer, F. Pawlowski, T. B. Pedersen, P. F. Provasi,
       S. Reine, Z. Rinkevicius, T. A. Ruden, K. Ruud, V. Rybkin,
       P. Salek, C. C. M. Samson, A. Sanchez de Meras, T. Saue,
       S. P. A. Sauer, B. Schimmelpfennig, K. Sneskov,
       A. H. Steindal, K. O. Sylvester-Hvid, P. R. Taylor,
       A. M. Teale, E. I. Tellgren, D. P. Tew, A. J. Thorvaldsen,
       L. Thoegersen, O. Vahtras, M. A. Watson, D. J. D. Wilson,
       M. Ziolkowski and H. Aagren,
       "The Dalton quantum chemistry program system",
       WIREs Comput. Mol. Sci. 2013. (doi: 10.1002/wcms.1172)
    
    and
    
       Dalton, a Molecular Electronic Structure Program,
       Release DALTON2013.0 (2013), see http://daltonprogram.org
   ----------------------------------------------------------------------------

    Authors in alphabetical order (major contribution(s) in parenthesis):

  Kestutis Aidas,           Vilnius University,           Lithuania   (QM/MM)
  Celestino Angeli,         University of Ferrara,        Italy       (NEVPT2)
  Keld L. Bak,              UNI-C,                        Denmark     (AOSOPPA, non-adiabatic coupling, magnetic properties)
  Vebjoern Bakken,          University of Oslo,           Norway      (DALTON; geometry optimizer, symmetry detection)
  Radovan Bast,             KTH Stockholm,                Sweden      (DALTON installation and execution frameworks)
  Linus Boman,              NTNU,                         Norway      (Cholesky decomposition and subsystems)
  Ove Christiansen,         Aarhus University,            Denmark     (CC module)
  Renzo Cimiraglia,         University of Ferrara,        Italy       (NEVPT2)
  Sonia Coriani,            University of Trieste,        Italy       (CC module, MCD in RESPONS)
  Paal Dahle,               University of Oslo,           Norway      (Parallelization)
  Erik K. Dalskov,          UNI-C,                        Denmark     (SOPPA)
  Thomas Enevoldsen,        Univ. of Southern Denmark,    Denmark     (SOPPA)
  Janus J. Eriksen,         Aarhus University,            Denmark     (PE-MP2/SOPPA, TDA)
  Berta Fernandez,          U. of Santiago de Compostela, Spain       (doublet spin, ESR in RESPONS)
  Lara Ferrighi,            Aarhus University,            Denmark     (PCM Cubic response)
  Heike Fliegl,             University of Oslo,           Norway      (CCSD(R12))
  Luca Frediani,            UiT The Arctic U. of Norway,  Norway      (PCM)
  Bin Gao,                  UiT The Arctic U. of Norway,  Norway      (Gen1Int library)
  Christof Haettig,         Ruhr-University Bochum,       Germany     (CC module)
  Kasper Hald,              Aarhus University,            Denmark     (CC module)
  Asger Halkier,            Aarhus University,            Denmark     (CC module)
  Hanne Heiberg,            University of Oslo,           Norway      (geometry analysis, selected one-electron integrals)
  Trygve Helgaker,          University of Oslo,           Norway      (DALTON; ABACUS, ERI, DFT modules, London, and much more)
  Alf Christian Hennum,     University of Oslo,           Norway      (Parity violation)
  Hinne Hettema,            University of Auckland,       New Zealand (quadratic response in RESPONS; SIRIUS supersymmetry)
  Eirik Hjertenaes,         NTNU,                         Norway      (Cholesky decomposition)
  Maria Francesca Iozzi,    University of Oslo,           Norway      (RPA)
  Brano Jansik              Technical Univ. of Ostrava    Czech Rep.  (DFT cubic response)
  Hans Joergen Aa. Jensen,  Univ. of Southern Denmark,    Denmark     (DALTON; SIRIUS, RESPONS, ABACUS modules, London, and much more)
  Dan Jonsson,              UiT The Arctic U. of Norway,  Norway      (cubic response in RESPONS module)
  Poul Joergensen,          Aarhus University,            Denmark     (RESPONS, ABACUS, and CC modules)
  Joanna Kauczor,           Linkoeping University,        Sweden      (Complex polarization propagator (CPP) module)
  Sheela Kirpekar,          Univ. of Southern Denmark,    Denmark     (Mass-velocity & Darwin integrals)
  Wim Klopper,              KIT Karlsruhe,                Germany     (R12 code in CC, SIRIUS, and ABACUS modules)
  Stefan Knecht,            ETH Zurich,                   Switzerland (Parallel CI and MCSCF)
  Rika Kobayashi,           Australian National Univ.,    Australia   (DIIS in CC, London in MCSCF)
  Henrik Koch,              NTNU,                         Norway      (CC module, Cholesky decomposition)
  Jacob Kongsted,           Univ. of Southern Denmark,    Denmark     (Polarizable embedding, QM/MM)
  Andrea Ligabue,           University of Modena,         Italy       (CTOCD, AOSOPPA)
  Ola B. Lutnaes,           University of Oslo,           Norway      (DFT Hessian)
  Juan I. Melo,             University of Buenos Aires,   Argentina   (LRESC, Relativistic Effects on NMR Shieldings)
  Kurt V. Mikkelsen,        University of Copenhagen,     Denmark     (MC-SCRF and QM/MM)
  Rolf H. Myhre,            NTNU,                         Norway      (Cholesky, subsystems and ECC2)
  Christian Neiss,          Univ. Erlangen-Nuernberg,     Germany     (CCSD(R12))
  Christian B. Nielsen,     University of Copenhagen,     Denmark     (QM/MM)
  Patrick Norman,           Linkoeping University,        Sweden      (Cubic response and complex response in RESPONS)
  Jeppe Olsen,              Aarhus University,            Denmark     (SIRIUS CI/density modules)
  Jogvan Magnus H. Olsen,   Univ. of Southern Denmark,    Denmark     (Polarizable embedding, PE library, QM/MM)
  Anders Osted,             Copenhagen University,        Denmark     (QM/MM)
  Martin J. Packer,         University of Sheffield,      UK          (SOPPA)
  Filip Pawlowski,          Kazimierz Wielki University,  Poland      (CC3)
  Thomas B. Pedersen,       University of Oslo,           Norway      (Cholesky decomposition)
  Patricio F. Provasi,      University of Northeastern,   Argentina   (Analysis of coupling constants in localized orbitals)
  Zilvinas Rinkevicius,     KTH Stockholm,                Sweden      (open-shell DFT, ESR)
  Elias Rudberg,            KTH Stockholm,                Sweden      (DFT grid and basis info)
  Torgeir A. Ruden,         University of Oslo,           Norway      (Numerical derivatives in ABACUS)
  Kenneth Ruud,             UiT The Arctic U. of Norway,  Norway      (DALTON; ABACUS magnetic properties and  much more)
  Pawel Salek,              KTH Stockholm,                Sweden      (DALTON; DFT code)
  Claire C. M. Samson       University of Karlsruhe       Germany     (Boys localization, r12 integrals in ERI)
  Alfredo Sanchez de Meras, University of Valencia,       Spain       (CC module, Cholesky decomposition)
  Trond Saue,               Paul Sabatier University,     France      (direct Fock matrix construction)
  Stephan P. A. Sauer,      University of Copenhagen,     Denmark     (SOPPA(CCSD), SOPPA prop., AOSOPPA, vibrational g-factors)
  Bernd Schimmelpfennig,    Forschungszentrum Karlsruhe,  Germany     (AMFI module)
  Kristian Sneskov,         Aarhus University,            Denmark     (QM/MM, PE-CC)
  Arnfinn H. Steindal,      UiT The Arctic U. of Norway,  Norway      (parallel QM/MM)
  K. O. Sylvester-Hvid,     University of Copenhagen,     Denmark     (MC-SCRF)
  Peter R. Taylor,          VLSCI/Univ. of Melbourne,     Australia   (Symmetry handling ABACUS, integral transformation)
  Andrew M. Teale,          University of Nottingham,     England     (DFT-AC, DFT-D)
  David P. Tew,             University of Bristol,        England     (CCSD(R12))
  Olav Vahtras,             KTH Stockholm,                Sweden      (triplet response, spin-orbit, ESR, TDDFT, open-shell DFT)
  David J. Wilson,          La Trobe University,          Australia   (DFT Hessian and DFT magnetizabilities)
  Hans Agren,               KTH Stockholm,                Sweden      (SIRIUS module, RESPONS, MC-SCRF solvation model)
 --------------------------------------------------------------------------------

     Date and time (Linux)  : Wed Dec 18 23:32:56 2013
     Host name              : gold                                    

 * Work memory size             :    64000000 =  488.28 megabytes.

 * Directories for basis set searches:
   1) /home/eric/repos/forks/qmspeedtest/dalton/2013/hf
   2) /home/eric/opt/apps/dalton/2013/build/basis


Compilation information
-----------------------

 Who compiled             | eric
 Host                     | gold
 System                   | Linux-3.11.0-13-generic
 CMake generator          | Unix Makefiles
 Processor                | x86_64
 64-bit integers          | OFF
 MPI                      | OFF
 Fortran compiler         | /home/eric/opt/apps/intel/2013_sp1_update1/compose
                          | r_xe_2013_sp1.1.106/bin/intel64/ifort
 Fortran compiler version | ifort (IFORT) 14.0.1 20131008
 C compiler               | /home/eric/opt/apps/intel/2013_sp1_update1/compose
                          | r_xe_2013_sp1.1.106/bin/intel64/icc
 C compiler version       | icc (ICC) 14.0.1 20131008
 C++ compiler             | /home/eric/opt/apps/intel/2013_sp1_update1/compose
                          | r_xe_2013_sp1.1.106/bin/intel64/icpc
 C++ compiler version     | icpc (ICC) 14.0.1 20131008
 Static linking           | OFF
 Last Git revision        | 575a5cf6d2c5c3776735f11fa026dbfca0382455
 Configuration time       | 2013-11-19 15:01:21.168702


   Content of the .dal input file
 ----------------------------------

BASIS                                             
6-31G                                             
 Title                                            
 Generated by the Dalton Input File Plugin for Avo
Atomtypes=5 Angstrom                              
Charge=6.0 Atoms=7                                
C          2.05639       -0.16543        0.39727  
C          0.68890        2.02854       -0.64816  
C          2.74071        1.02327        0.12533  
C          2.05734        2.11782       -0.40016  
C         -3.59396        1.03209        0.04589  
C          0.67738       -0.27507        0.15097  
C          0.00274        0.84234       -0.35887  
Charge=8.0 Atoms=3                                
O          0.63293       -2.54526        0.93360  
O         -1.76452        1.43252        1.56571  
O         -1.24894       -1.68411        0.12975  
Charge=6.0 Atoms=2                                
C          0.05278       -1.58881        0.44958  
C         -2.15199        1.12841        0.44513  
Charge=8.0 Atoms=1                                
O         -1.36167        0.82832       -0.65825  
Charge=1.0 Atoms=8                                
H         -1.47652       -2.60111        0.39232  
H          2.60948       -1.01173        0.80284  
H          0.15708        2.88266       -1.05823  
H          3.80777        1.09126        0.32364  
H          2.59044        3.04081       -0.61405  
H         -3.81640        0.02049       -0.30287  
H         -4.22480        1.24591        0.91440  
H         -3.81296        1.76576       -0.73332  
                                                  
**DALTON INPUT                                    
.RUN WAVE FUNCTIONS                               
.OPTIMIZE                                         
**WAVE FUNCTIONS                                  
.HF                                               
**END OF DALTON INPUT                             


   Content of the .mol file
 ----------------------------

BASIS                                                                          
6-31G                                                                          
 Title                                                                         
 Generated by the Dalton Input File Plugin for Avogadro                        
ATOMTYPES=5 GENERATORS=0                                                       
Charge= 6.00000 Atoms=7                                                        
C     4.3362083926026527 -0.5951388609380672  0.3681955222079573               
C     1.5016222912596942  3.6737096282557249 -0.7167603504359839               
C     5.4828676787834407  1.7612215961605966  0.3706328781263661               
C     4.0579331844618123  3.9014597283226431 -0.1709493766267730               
C    -6.5724406637570914  1.0365336129631355 -0.4809296258865396               
C     1.7601187231259661 -0.8647884190797434 -0.1745989267283257               
C     0.3735792221217871  1.3092112836674383 -0.7289881326223641               
Charge= 8.00000 Atoms=3                                                        
O     1.9673258141640828 -5.3265737202979810  0.4688051838244817               
O    -3.3974526210590574  1.3113122019719790  2.7722153093306190               
O    -1.7659798749577920 -3.7234504097286409 -0.6111800014950510               
Charge= 6.00000 Atoms=2                                                        
C     0.7318645257427439 -3.4671230539367408 -0.0876457368903212               
C    -3.9511235008148518  1.1893387887771460  0.5625300619603659               
Charge= 8.00000 Atoms=1                                                        
O    -2.1905256400715296  1.2357817011882699 -1.3660278047127894               
Charge= 1.00000 Atoms=8                                                        
H    -2.1764841115972144 -5.4941808420084319 -0.4662841350254296               
H     5.4404137172947156 -2.2474927438928263  0.8034163153338827               
H     0.3865670635493029  5.3169340901627331 -1.1561497556744524               
H     7.4653531739521011  1.9233018728174951  0.7990661691280776               
H     4.9327880210074584  5.7372042481043239 -0.1751665562631867               
H    -6.7575490788418913 -0.6640818813179353 -1.6192812833282628               
H    -7.9238478356450681  0.9886088209910395  1.0595122243973183               
H    -6.9454090072398005  2.6642931628661302 -1.6733973366083297               


       *******************************************************************
       *********** Output from DALTON general input processing ***********
       *******************************************************************

 --------------------------------------------------------------------------------
   Overall default print level:    0
   Print level for DALTON.STAT:    1

    HERMIT 1- and 2-electron integral sections will be executed
    "Old" integral transformation used (limited to max 255 basis functions)
    Wave function sections will be executed (SIRIUS module)
 --------------------------------------------------------------------------------


 Chosen parameters for *OPTIMI :
 -------------------------------

 Default 1st order method will be used:   BFGS update.
 Optimization will be performed in redundant internal coordinates.
 Model Hessian will be used as initial Hessian.
 The model Hessian parameters of Roland Lindh will be used.
 
 
 Trust region method will be used to control step (default).
 
 Convergence threshold for gradient set to :      1.00D-04
 Convergence threshold for energy set to   :      1.00D-06
 Convergence threshold for step set to     :      1.00D-04
 Number of convergence criteria set to     :   2


              >>>>>>>>>>>>>>>>>>>>>>>>>>>>>>>>>>>>>>>>>>>>>>>>>>>>>
              >>>>>>>>>> 1st Order Geometry Optimization >>>>>>>>>>
              >>>>>>>>>>>>>>>>>>>>>>>>>>>>>>>>>>>>>>>>>>>>>>>>>>>>>

 Reading .mol file to determine number of atoms for parallel runs.


                      SYMADD: Requested addition of symmetry
                      --------------------------------------

 Symmetry test threshold:  5.00E-06

 - molecule centered at center of mass and rotated so
   principal axes of inertia are along coordinate axes.

 Symmetry class found: C(1)           

 No symmetry elements were found.


   ****************************************************************************
   *************** Output of molecule and basis set information ***************
   ****************************************************************************


    The two title cards from your ".mol" input:
    ------------------------------------------------------------------------
 1:  Title                                                                  
 2:  Generated by the Dalton Input File Plugin for Avogadro                 
    ------------------------------------------------------------------------

  Coordinates are entered in Angstrom and converted to atomic units.
          - Conversion factor : 1 bohr = 0.52917721 A

  Atomic type no.    1
  --------------------
  Nuclear charge:   6.00000
  Number of symmetry independent centers:    7
  Number of basis sets to read;    2
  Basis set file used for this atomic type with Z =   6 :
     "/home/eric/opt/apps/dalton/2013/build/basis/6-31G"

  Info about the basis set file: your basis has no documentation.
  Basis set: 6-31G                                                                           

  Atomic type no.    2
  --------------------
  Nuclear charge:   8.00000
  Number of symmetry independent centers:    3
  Number of basis sets to read;    2
  Basis set file used for this atomic type with Z =   8 :
     "/home/eric/opt/apps/dalton/2013/build/basis/6-31G"

  Info about the basis set file: your basis has no documentation.
  Basis set: 6-31G                                                                           

  Atomic type no.    3
  --------------------
  Nuclear charge:   6.00000
  Number of symmetry independent centers:    2
  Number of basis sets to read;    2
  Basis set file used for this atomic type with Z =   6 :
     "/home/eric/opt/apps/dalton/2013/build/basis/6-31G"

  Info about the basis set file: your basis has no documentation.
  Basis set: 6-31G                                                                           

  Atomic type no.    4
  --------------------
  Nuclear charge:   8.00000
  Number of symmetry independent centers:    1
  Number of basis sets to read;    2
  Basis set file used for this atomic type with Z =   8 :
     "/home/eric/opt/apps/dalton/2013/build/basis/6-31G"

  Info about the basis set file: your basis has no documentation.
  Basis set: 6-31G                                                                           

  Atomic type no.    5
  --------------------
  Nuclear charge:   1.00000
  Number of symmetry independent centers:    8
  Number of basis sets to read;    2
  Basis set file used for this atomic type with Z =   1 :
     "/home/eric/opt/apps/dalton/2013/build/basis/6-31G"

  Info about the basis set file: your basis has no documentation.
  Basis set: 6-31G                                                                           


                      SYMADD: Requested addition of symmetry
                      --------------------------------------

 Symmetry test threshold:  5.00E-06

 - molecule centered at center of mass and rotated so
   principal axes of inertia are along coordinate axes.

 Symmetry class found: C(1)           

 Symmetry Independent Centres             
 ----------------------------
       8 :     -2.21606298     1.18803262    -1.50610488  Isotope  1
       8 :     -1.71797481    -3.73049596    -0.90241125  Isotope  1
       8 :     -3.25331463     1.47206321     2.78214666  Isotope  1
       8 :      1.87603734    -5.37915584     0.50024700  Isotope  1
       6 :      0.32430660     1.27535745    -0.79363446  Isotope  1
       6 :      1.70754279    -0.89198436    -0.15982103  Isotope  1
       6 :      0.69113550    -3.50751709    -0.13087433  Isotope  1
       6 :      1.47378086     3.65888898    -0.84259108  Isotope  1
       6 :     -3.84221474     1.25722491     0.55557470  Isotope  1
       6 :      4.26652631    -0.60699384     0.48896786  Isotope  1
       6 :      4.01559173     3.90427012    -0.19888219  Isotope  1
       6 :      5.41067333     1.77481273     0.47284453  Isotope  1
       6 :     -6.50827814     1.04323496    -0.37924123  Isotope  1
       1 :      0.38785634     5.32076737    -1.36662263  Isotope  1
       1 :      5.39177876    -2.25019128     1.00973982  Isotope  1
       1 :     -2.03985745    -5.54975776    -0.75852913  Isotope  1
       1 :     -6.75390322    -0.73462283    -1.40117077  Isotope  1
       1 :      4.90751269     5.75485257    -0.21628123  Isotope  1
       1 :     -6.95619879     2.65074900    -1.59455093  Isotope  1
       1 :      7.39248591     1.96139625     0.98336117  Isotope  1
       1 :     -7.80159392     1.05514959     1.23484803  Isotope  1

 No symmetry elements were found.


                         SYMGRP: Point group information
                         -------------------------------

Full point group is: C(1)           
Represented as:      C1 


                                 Isotopic Masses
                                 ---------------

                           C          12.000000
                           C          12.000000
                           C          12.000000
                           C          12.000000
                           C          12.000000
                           C          12.000000
                           C          12.000000
                           O          15.994915
                           O          15.994915
                           O          15.994915
                           C          12.000000
                           C          12.000000
                           O          15.994915
                           H           1.007825
                           H           1.007825
                           H           1.007825
                           H           1.007825
                           H           1.007825
                           H           1.007825
                           H           1.007825
                           H           1.007825

                       Total mass:   180.042260 amu
                       Natural abundance:  89.551 %

 Center-of-mass coordinates (a.u.):    0.000000   -0.000000    0.000000


  Atoms and basis sets
  --------------------

  Number of atom types :    5
  Total number of atoms:   21

  Basis set used is "6-31G" from the basis set library.

  label    atoms   charge   prim   cont     basis
  ----------------------------------------------------------------------
  C           7    6.0000    22     9      [10s4p|3s2p]                                       
  O           3    8.0000    22     9      [10s4p|3s2p]                                       
  C           2    6.0000    22     9      [10s4p|3s2p]                                       
  O           1    8.0000    22     9      [10s4p|3s2p]                                       
  H           8    1.0000     4     2      [4s|2s]                                            
  ----------------------------------------------------------------------
  total:     21   94.0000   318   133
  ----------------------------------------------------------------------

  Threshold for neglecting AO integrals:  1.00D-12


  Cartesian Coordinates (a.u.)
  ----------------------------

  Total number of coordinates:   63
  C       :     1  x   4.2665263107    2  y  -0.6069938420    3  z   0.4889678577
  C       :     4  x   1.4737808630    5  y   3.6588889806    6  z  -0.8425910798
  C       :     7  x   5.4106733253    8  y   1.7748127338    9  z   0.4728445331
  C       :    10  x   4.0155917335   11  y   3.9042701198   12  z  -0.1988821875
  C       :    13  x  -6.5082781445   14  y   1.0432349636   15  z  -0.3792412316
  C       :    16  x   1.7075427918   17  y  -0.8919843627   18  z  -0.1598210306
  C       :    19  x   0.3243065981   20  y   1.2753574527   21  z  -0.7936344617
  O       :    22  x   1.8760373357   23  y  -5.3791558424   24  z   0.5002469999
  O       :    25  x  -3.2533146343   26  y   1.4720632123   27  z   2.7821466649
  O       :    28  x  -1.7179748138   29  y  -3.7304959580   30  z  -0.9024112466
  C       :    31  x   0.6911354953   32  y  -3.5075170905   33  z  -0.1308743322
  C       :    34  x  -3.8422147388   35  y   1.2572249077   36  z   0.5555747033
  O       :    37  x  -2.2160629754   38  y   1.1880326165   39  z  -1.5061048794
  H       :    40  x  -2.0398574459   41  y  -5.5497577623   42  z  -0.7585291289
  H       :    43  x   5.3917787591   44  y  -2.2501912756   45  z   1.0097398185
  H       :    46  x   0.3878563422   47  y   5.3207673728   48  z  -1.3666226328
  H       :    49  x   7.3924859122   50  y   1.9613962504   51  z   0.9833611715
  H       :    52  x   4.9075126937   53  y   5.7548525658   54  z  -0.2162812284
  H       :    55  x  -6.7539032240   56  y  -0.7346228297   57  z  -1.4011707707
  H       :    58  x  -7.8015939179   59  y   1.0551495902   60  z   1.2348480336
  H       :    61  x  -6.9561987920   62  y   2.6507490020   63  z  -1.5945509303

  Max    interatomic separation is    8.0557 Angstrom (   15.2232 Bohr)
  between atoms   20 and   17, "H     " and "H     ".

  Min HX interatomic separation is    0.9806 Angstrom (    1.8531 Bohr)

  Min YX interatomic separation is    1.2189 Angstrom (    2.3033 Bohr)


  Bond distances (Angstrom):
  --------------------------

                  atom 1     atom 2       distance
                  ------     ------       --------
  bond distance:  C          C            1.398304
  bond distance:  C          C            1.393594
  bond distance:  C          C            1.393260
  bond distance:  C          C            1.405117
  bond distance:  C          C            1.400562
  bond distance:  C          C            1.401314
  bond distance:  C          C            1.484994
  bond distance:  C          O            1.218871
  bond distance:  C          O            1.343819
  bond distance:  C          C            1.499316
  bond distance:  C          O            1.224057
  bond distance:  O          C            1.396939
  bond distance:  O          C            1.390003
  bond distance:  H          O            0.980625
  bond distance:  H          C            1.089321
  bond distance:  H          C            1.086513
  bond distance:  H          C            1.087459
  bond distance:  H          C            1.087132
  bond distance:  H          C            1.092908
  bond distance:  H          C            1.094526
  bond distance:  H          C            1.092429


  Bond angles (degrees):
  ----------------------

                  atom 1     atom 2     atom 3         angle
                  ------     ------     ------         -----
  bond angle:     C          C          C            120.833
  bond angle:     C          C          H            118.971
  bond angle:     C          C          H            120.195
  bond angle:     C          C          C            119.906
  bond angle:     C          C          H            119.831
  bond angle:     C          C          H            120.262
  bond angle:     C          C          C            120.076
  bond angle:     C          C          H            119.861
  bond angle:     C          C          H            120.063
  bond angle:     C          C          C            119.896
  bond angle:     C          C          H            120.060
  bond angle:     C          C          H            120.045
  bond angle:     C          C          H            109.888
  bond angle:     C          C          H            109.297
  bond angle:     C          C          H            109.852
  bond angle:     H          C          H            108.465
  bond angle:     H          C          H            110.684
  bond angle:     H          C          H            108.618
  bond angle:     C          C          C            118.297
  bond angle:     C          C          C            116.524
  bond angle:     C          C          C            125.177
  bond angle:     C          C          C            120.974
  bond angle:     C          C          O            116.279
  bond angle:     C          C          O            122.697
  bond angle:     C          O          H            103.144
  bond angle:     C          C          O            125.020
  bond angle:     C          C          O            114.981
  bond angle:     O          C          O            119.995
  bond angle:     C          C          O            124.345
  bond angle:     C          C          O            108.759
  bond angle:     O          C          O            126.895
  bond angle:     C          O          C            112.523




 Principal moments of inertia (u*A**2) and principal axes
 --------------------------------------------------------

   IA     465.853973          1.000000   -0.000000    0.000000
   IB     658.879768          0.000000    1.000000    0.000000
   IC    1003.900338         -0.000000   -0.000000    1.000000


 Rotational constants
 --------------------

               A                   B                   C

           1084.8443            767.0277            503.4155 MHz
            0.036187            0.025585            0.016792 cm-1


@  Nuclear repulsion energy :  782.661165278018 Hartree


                     .---------------------------------------.
                     | Starting in Integral Section (HERMIT) |
                     `---------------------------------------'



    *************************************************************************
    ****************** Output from HERMIT input processing ******************
    *************************************************************************



     ************************************************************************
     ************************** Output from HERINT **************************
     ************************************************************************


 Threshold for neglecting two-electron integrals:  1.00D-12
 Number of two-electron integrals written:    29127422 ( 73.4% )
 Megabytes written:                            333.524

 >>>  Time used in TWOINT     is   6.28 seconds
 >>>> Total CPU  time used in HERMIT:   6.49 seconds
 >>>> Total wall time used in HERMIT:   6.50 seconds


                        .----------------------------------.
                        | End of Integral Section (HERMIT) |
                        `----------------------------------'



                   .--------------------------------------------.
                   | Starting in Wave Function Section (SIRIUS) |
                   `--------------------------------------------'


 *** Output from Huckel module :

     Using EWMO model:          T
     Using EHT  model:          F
     Number of Huckel orbitals each symmetry:   73

 EWMO - Energy Weighted Maximum Overlap - is a Huckel type method,
        which normally is better than Extended Huckel Theory.
 Reference: Linderberg and Ohrn, Propagators in Quantum Chemistry (Wiley, 1973)

 Huckel EWMO eigenvalues for symmetry :  1
          -20.686299     -20.685440     -20.684293     -20.683719     -11.364887
          -11.357262     -11.355387     -11.353941     -11.351727     -11.349007
          -11.347607     -11.347253     -11.344149      -2.048467      -1.861079
           -1.851534      -1.569434      -1.481733      -1.424955      -1.386151
           -1.252068      -1.052620      -0.969028      -0.920476      -0.868620
           -0.841874      -0.787271      -0.756904      -0.748634      -0.728702
           -0.697590      -0.666649      -0.642210      -0.610388      -0.596123
           -0.590881      -0.584465      -0.573330      -0.550212      -0.534161
           -0.488981      -0.477522      -0.476171      -0.467060      -0.440136
           -0.421080      -0.385817      -0.289254      -0.270695      -0.244308
           -0.222468      -0.217811      -0.205328      -0.175564      -0.172115
           -0.161438      -0.155184      -0.151004      -0.132114      -0.123593
           -0.121971      -0.121928      -0.120788      -0.117763      -0.116079
           -0.115549      -0.112802      -0.102558      -0.097709      -0.095917
           -0.094684      -0.082601      -0.075879

 **********************************************************************
 *SIRIUS* a direct, restricted step, second order MCSCF program       *
 **********************************************************************

 
     Date and time (Linux)  : Wed Dec 18 23:33:02 2013
     Host name              : gold                                    

 Title lines from ".mol" input file:
      Title                                                                  
      Generated by the Dalton Input File Plugin for Avogadro                 

 Print level on unit LUPRI =   2 is   0
 Print level on unit LUW4  =   2 is   5

@    Restricted, closed shell Hartree-Fock calculation.

 Initial molecular orbitals are obtained according to
 ".MOSTART EWMO  " input option

     Wave function specification
     ============================
@    For the wave function of type :      >>> HF <<<
@    Number of closed shell electrons          94
@    Number of electrons in active shells       0
@    Total charge of the molecule               0

@    Spin multiplicity and 2 M_S                1         0
     Total number of symmetries                 1
@    Reference state symmetry                   1

     Orbital specifications
     ======================
     Abelian symmetry species          All |    1
                                       --- |  ---
@    Occupied SCF orbitals              47 |   47
     Secondary orbitals                 86 |   86
     Total number of orbitals          133 |  133
     Number of basis functions         133 |  133

     Optimization information
     ========================
@    Number of configurations                 1
@    Number of orbital rotations           4042
     ------------------------------------------
@    Total number of variables             4043

     Maximum number of Fock   iterations      0
     Maximum number of DIIS   iterations     60
     Maximum number of QC-SCF iterations     60
     Threshold for SCF convergence     1.00D-05


 >>>>> DIIS optimization of Hartree-Fock <<<<<

 C1-DIIS algorithm; max error vectors =    5

 Iter      Total energy        Error norm    Delta(E)  DIIS dim.
 -----------------------------------------------------------------------------
     (Precalculated two-electron integrals are transformed to P-supermatrix elements.
      Threshold for discarding integrals :  1.00D-12 )
 >>>  Time used in FORMSUP    is   1.55 seconds
@  1    -642.519486386        5.44412D+00   -6.43D+02    1
      Virial theorem: -V/T =      2.002222
@      MULPOP C       0.14; C       0.05; C       0.15; C       0.27; C       0.30; C       0.38; C       0.66; O      -1.02; O      -1.06; O      -0.57; 
@             C       0.97; C       1.35; O      -0.75; H       0.25; H      -0.22; H      -0.22; H      -0.20; H      -0.21; H      -0.08; H      -0.12; 
@             H      -0.08; 
 -----------------------------------------------------------------------------
@  2    -643.977300007        3.55874D+00   -1.46D+00    2
      Virial theorem: -V/T =      2.002437
@      MULPOP C      -0.17; C      -0.20; C      -0.18; C      -0.20; C      -0.77; C      -0.39; C       0.11; O       0.38; O       0.22; O      -0.57; 
@             C      -0.10; C      -0.14; O      -0.30; H       0.42; H       0.30; H       0.25; H       0.25; H       0.26; H       0.28; H       0.28; 
@             H       0.27; 
 -----------------------------------------------------------------------------
@  3    -644.615296233        9.02143D-01   -6.38D-01    3
      Virial theorem: -V/T =      1.998785
@      MULPOP C      -0.18; C      -0.20; C      -0.22; C      -0.17; C      -0.53; C      -0.01; C       0.38; O      -0.68; O      -0.63; O      -0.62; 
@             C       0.81; C       0.83; O      -0.66; H       0.40; H       0.24; H       0.21; H       0.20; H       0.21; H       0.21; H       0.19; 
@             H       0.20; 
 -----------------------------------------------------------------------------
@  4    -644.655834265        2.84905D-01   -4.05D-02    4
      Virial theorem: -V/T =      2.000497
@      MULPOP C      -0.14; C      -0.18; C      -0.18; C      -0.14; C      -0.51; C      -0.11; C       0.37; O      -0.51; O      -0.52; O      -0.73; 
@             C       0.74; C       0.74; O      -0.75; H       0.44; H       0.25; H       0.22; H       0.20; H       0.21; H       0.21; H       0.20; 
@             H       0.20; 
 -----------------------------------------------------------------------------
@  5    -644.660736207        6.99700D-02   -4.90D-03    5
      Virial theorem: -V/T =      2.000495
@      MULPOP C      -0.16; C      -0.19; C      -0.21; C      -0.17; C      -0.52; C      -0.12; C       0.39; O      -0.56; O      -0.54; O      -0.71; 
@             C       0.78; C       0.75; O      -0.72; H       0.44; H       0.27; H       0.23; H       0.22; H       0.22; H       0.22; H       0.20; 
@             H       0.20; 
 -----------------------------------------------------------------------------
@  6    -644.661136801        2.11180D-02   -4.01D-04    5
      Virial theorem: -V/T =      2.000258
@      MULPOP C      -0.16; C      -0.20; C      -0.21; C      -0.17; C      -0.52; C      -0.12; C       0.38; O      -0.56; O      -0.54; O      -0.72; 
@             C       0.78; C       0.75; O      -0.73; H       0.44; H       0.27; H       0.23; H       0.22; H       0.22; H       0.22; H       0.20; 
@             H       0.20; 
 -----------------------------------------------------------------------------
@  7    -644.661194493        6.89418D-03   -5.77D-05    5
      Virial theorem: -V/T =      2.000294
@      MULPOP C      -0.16; C      -0.20; C      -0.21; C      -0.17; C      -0.52; C      -0.12; C       0.38; O      -0.56; O      -0.54; O      -0.72; 
@             C       0.78; C       0.75; O      -0.73; H       0.44; H       0.27; H       0.23; H       0.22; H       0.22; H       0.22; H       0.20; 
@             H       0.20; 
 -----------------------------------------------------------------------------
@  8    -644.661202361        3.27919D-03   -7.87D-06    5
      Virial theorem: -V/T =      2.000294
@      MULPOP C      -0.16; C      -0.20; C      -0.21; C      -0.17; C      -0.52; C      -0.12; C       0.38; O      -0.56; O      -0.54; O      -0.72; 
@             C       0.78; C       0.75; O      -0.73; H       0.44; H       0.27; H       0.23; H       0.22; H       0.22; H       0.22; H       0.20; 
@             H       0.20; 
 -----------------------------------------------------------------------------
@  9    -644.661203280        1.34055D-03   -9.18D-07    5
      Virial theorem: -V/T =      2.000289
@      MULPOP C      -0.16; C      -0.20; C      -0.21; C      -0.17; C      -0.52; C      -0.12; C       0.38; O      -0.56; O      -0.54; O      -0.72; 
@             C       0.78; C       0.75; O      -0.73; H       0.44; H       0.27; H       0.23; H       0.22; H       0.22; H       0.22; H       0.20; 
@             H       0.20; 
 -----------------------------------------------------------------------------
@ 10    -644.661203541        6.34083D-04   -2.61D-07    5
      Virial theorem: -V/T =      2.000292
@      MULPOP C      -0.16; C      -0.20; C      -0.21; C      -0.17; C      -0.52; C      -0.12; C       0.38; O      -0.56; O      -0.54; O      -0.72; 
@             C       0.78; C       0.75; O      -0.73; H       0.44; H       0.27; H       0.23; H       0.22; H       0.22; H       0.22; H       0.20; 
@             H       0.20; 
 -----------------------------------------------------------------------------
@ 11    -644.661203592        3.63211D-04   -5.05D-08    5
      Virial theorem: -V/T =      2.000292
@      MULPOP C      -0.16; C      -0.20; C      -0.21; C      -0.17; C      -0.52; C      -0.12; C       0.38; O      -0.56; O      -0.54; O      -0.72; 
@             C       0.78; C       0.75; O      -0.73; H       0.44; H       0.27; H       0.23; H       0.22; H       0.22; H       0.22; H       0.20; 
@             H       0.20; 
 -----------------------------------------------------------------------------
@ 12    -644.661203612        1.60897D-04   -2.07D-08    5
      Virial theorem: -V/T =      2.000291
@      MULPOP C      -0.16; C      -0.20; C      -0.21; C      -0.17; C      -0.52; C      -0.12; C       0.38; O      -0.56; O      -0.54; O      -0.72; 
@             C       0.78; C       0.75; O      -0.73; H       0.44; H       0.27; H       0.23; H       0.22; H       0.22; H       0.22; H       0.20; 
@             H       0.20; 
 -----------------------------------------------------------------------------
@ 13    -644.661203618        8.33512D-05   -6.00D-09    5
      Virial theorem: -V/T =      2.000291
@      MULPOP C      -0.16; C      -0.20; C      -0.21; C      -0.17; C      -0.52; C      -0.12; C       0.38; O      -0.56; O      -0.54; O      -0.72; 
@             C       0.78; C       0.75; O      -0.73; H       0.44; H       0.27; H       0.23; H       0.22; H       0.22; H       0.22; H       0.20; 
@             H       0.20; 
 -----------------------------------------------------------------------------
@ 14    -644.661203620        3.67405D-05   -1.53D-09    5
      Virial theorem: -V/T =      2.000291
@      MULPOP C      -0.16; C      -0.20; C      -0.21; C      -0.17; C      -0.52; C      -0.12; C       0.38; O      -0.56; O      -0.54; O      -0.72; 
@             C       0.78; C       0.75; O      -0.73; H       0.44; H       0.27; H       0.23; H       0.22; H       0.22; H       0.22; H       0.20; 
@             H       0.20; 
 -----------------------------------------------------------------------------
@ 15    -644.661203620        2.09507D-05   -3.08D-10    5
      Virial theorem: -V/T =      2.000291
@      MULPOP C      -0.16; C      -0.20; C      -0.21; C      -0.17; C      -0.52; C      -0.12; C       0.38; O      -0.56; O      -0.54; O      -0.72; 
@             C       0.78; C       0.75; O      -0.73; H       0.44; H       0.27; H       0.23; H       0.22; H       0.22; H       0.22; H       0.20; 
@             H       0.20; 
 -----------------------------------------------------------------------------
@ 16    -644.661203620        9.66064D-06   -5.05D-11    5

@ *** DIIS converged in  16 iterations !
@     Converged SCF energy, gradient:   -644.661203620161    9.66D-06
    - total time used in SIRFCK :              0.00 seconds


 *** SCF orbital energy analysis ***

 Only the five lowest virtual orbital energies printed in each symmetry.

 Number of electrons :   94
 Orbital occupations :   47

 Sym       Hartree-Fock orbital energies

  1    -20.63461281   -20.63041450   -20.58085836   -20.57431247   -11.42428126
       -11.42048157   -11.34248007   -11.28308326   -11.27343652   -11.27293197
       -11.26427262   -11.26018868   -11.24861448    -1.50354703    -1.48776261
        -1.39425907    -1.38225021    -1.18481656    -1.07022402    -1.05721223
        -1.01514775    -0.91761609    -0.86912927    -0.82752113    -0.79586593
        -0.73069922    -0.71972779    -0.70142799    -0.69474858    -0.67590584
        -0.66570023    -0.64877279    -0.63299115    -0.62357406    -0.59671745
        -0.58586692    -0.56790732    -0.56193428    -0.53245523    -0.52345080
        -0.52090856    -0.48550953    -0.47620963    -0.46680365    -0.45747293
        -0.36640881    -0.35391990     0.07225223     0.12199361     0.15600195
         0.21277189     0.21646699

    E(LUMO) :     0.07225223 au (symmetry 1)
  - E(HOMO) :    -0.35391990 au (symmetry 1)
  ------------------------------------------
    gap     :     0.42617213 au

 >>> Writing SIRIFC interface file <<<

 >>>> CPU and wall time for SCF :       3.167       3.386


                       .-----------------------------------.
                       | >>> Final results from SIRIUS <<< |
                       `-----------------------------------'


@    Spin multiplicity:           1
@    Spatial symmetry:            1
@    Total charge of molecule:    0

@    Final HF energy:            -644.661203620161                 
@    Nuclear repulsion:           782.661165278018
@    Electronic energy:         -1427.322368898179

@    Final gradient norm:           0.000009660644

 
     Date and time (Linux)  : Wed Dec 18 23:33:06 2013
     Host name              : gold                                    

 (Only coefficients >0.0100 are printed.)

 Molecular orbitals for symmetry species  1
 ------------------------------------------

    Orbital        43       44       45       46       47       48       49
   3 C   :1s    -0.0353  -0.0462   0.0087  -0.0025   0.0122  -0.0471  -0.0271
   4 C   :2px    0.0518  -0.0401   0.0433   0.0400  -0.0685  -0.0439   0.0740
   5 C   :2py   -0.0603  -0.0205   0.0007  -0.0214   0.0333   0.0246  -0.0349
   6 C   :2pz    0.0065  -0.0172  -0.0063  -0.1473   0.2486   0.1837  -0.2655
   7 C   :2px    0.0620  -0.0337   0.0242   0.0330  -0.0606  -0.0547   0.1437
   8 C   :2py   -0.0534  -0.0624   0.0059  -0.0154   0.0323   0.0290  -0.0742
   9 C   :2pz    0.0132  -0.0061  -0.0062  -0.1046   0.2073   0.3072  -0.4778
  10 C   :1s     0.0115   0.0082  -0.0058   0.0013   0.0003   0.0010  -0.0001
  11 C   :1s    -0.0199  -0.0169   0.0184  -0.0015  -0.0001  -0.0021  -0.0019
  12 C   :1s    -0.0717   0.0202   0.0051  -0.0157  -0.0162   0.0039   0.0291
  13 C   :2px    0.0638   0.0331  -0.0461  -0.0431   0.0695  -0.0219   0.0682
  14 C   :2py    0.0734   0.0891  -0.0369   0.0322  -0.0356   0.0147  -0.0360
  15 C   :2pz   -0.0242  -0.0169  -0.0039   0.1790  -0.2578   0.0853  -0.2630
  16 C   :2px    0.0105   0.0114  -0.0080  -0.0400   0.0512  -0.0189   0.1584
  17 C   :2py    0.0401   0.0242  -0.0161   0.0324  -0.0148   0.0133  -0.0848
  18 C   :2pz   -0.0316  -0.0135  -0.0007   0.1459  -0.2222   0.1527  -0.4755
  21 C   :1s     0.0041   0.0434  -0.0100  -0.0021  -0.0090   0.0119   0.0061
  22 C   :2px    0.0003   0.0298  -0.0158  -0.0356  -0.0751  -0.0230  -0.0675
  23 C   :2py    0.0383   0.0415  -0.0107   0.0210   0.0381   0.0114   0.0348
  24 C   :2pz   -0.0359  -0.0149  -0.0231   0.1334   0.2764   0.0858   0.2494
  25 C   :2px   -0.0051   0.0166  -0.0137  -0.0289  -0.0589  -0.0525  -0.1326
  26 C   :2py    0.0172   0.0066  -0.0049   0.0176   0.0322   0.0184   0.0632
  27 C   :2pz   -0.0263  -0.0096  -0.0180   0.1066   0.2387   0.1452   0.4567
  29 C   :1s     0.0179  -0.0034  -0.0055   0.0022   0.0012  -0.0005  -0.0013
  30 C   :1s     0.0407  -0.0159  -0.0072   0.0019   0.0116  -0.0161  -0.0317
  31 C   :2px   -0.0262  -0.0129   0.0412  -0.0791  -0.0070   0.0697  -0.0011
  32 C   :2py   -0.0649  -0.0286   0.0076   0.0379   0.0020  -0.0362   0.0020
  33 C   :2pz   -0.0347  -0.0183  -0.0025   0.2843   0.0199  -0.2563   0.0138
  34 C   :2px   -0.0286  -0.0082   0.0223  -0.0661  -0.0062   0.1170   0.0040
  35 C   :2py   -0.0455  -0.0159   0.0046   0.0305  -0.0028  -0.0532   0.0081
  36 C   :2pz   -0.0243  -0.0120  -0.0039   0.2353   0.0161  -0.4107   0.0289
  37 C   :1s    -0.0002   0.0035   0.0219   0.0002   0.0012  -0.0016  -0.0048
  38 C   :1s     0.0012  -0.0044  -0.0366  -0.0004  -0.0034   0.0034   0.0048
  39 C   :1s    -0.0031  -0.0297  -0.1540   0.0035   0.0143  -0.0087   0.0439
  40 C   :2px    0.0057  -0.0331  -0.1880  -0.0060  -0.0189   0.0120   0.0211
  41 C   :2py    0.0547  -0.0018  -0.0192   0.0027  -0.0033   0.0043   0.0020
  42 C   :2pz   -0.0009  -0.0424  -0.1336  -0.0001  -0.0028   0.0066   0.0110
  43 C   :2px    0.0060  -0.0235  -0.1104  -0.0049  -0.0122   0.0258   0.0578
  44 C   :2py    0.0288  -0.0042  -0.0125  -0.0031   0.0000  -0.0165   0.0088
  45 C   :2pz    0.0036  -0.0348  -0.1032   0.0024   0.0047   0.0088   0.0093
  46 C   :1s    -0.0203   0.0152  -0.0057  -0.0005   0.0000  -0.0005   0.0003
  47 C   :1s     0.0353  -0.0186   0.0169  -0.0015   0.0000  -0.0012   0.0004
  48 C   :1s     0.1421  -0.1711   0.0402   0.0102  -0.0105   0.0394   0.0234
  49 C   :2px   -0.0813   0.0368  -0.0406   0.0836   0.0084   0.0548  -0.0039
  50 C   :2py    0.0264   0.1943  -0.0346  -0.0330  -0.0037  -0.0259   0.0017
  51 C   :2pz   -0.0228  -0.0135  -0.0120  -0.3198  -0.0254  -0.2150   0.0075
  52 C   :2px   -0.0084   0.0482  -0.0211   0.0791  -0.0056   0.1355   0.0214
  53 C   :2py    0.0316   0.2665  -0.0364  -0.0384  -0.0264  -0.0188   0.0615
  54 C   :2pz    0.0000  -0.0219  -0.0113  -0.2849  -0.0227  -0.3644   0.0173
  56 C   :1s    -0.0079   0.0151   0.0030   0.0005   0.0023  -0.0001   0.0008
  57 C   :1s    -0.0261  -0.0713  -0.0084   0.0035   0.0025   0.0189  -0.0004
  58 C   :2px   -0.0079   0.0192   0.0503   0.0256   0.0611  -0.0482  -0.0707
  59 C   :2py   -0.0883  -0.1148   0.0357  -0.0220  -0.0394   0.0265   0.0401
  60 C   :2pz    0.0064   0.0277   0.0429  -0.1181  -0.2835   0.2074   0.2994
  61 C   :2px   -0.0143  -0.0639   0.0133   0.0330   0.0971  -0.1217  -0.1962
  62 C   :2py   -0.0079  -0.0678   0.0236  -0.0068  -0.0248   0.0440   0.0706
  63 C   :2pz   -0.0055  -0.0046   0.0027  -0.0760  -0.2095   0.2792   0.4443
  66 O   :1s     0.0176  -0.0301   0.0058   0.0032   0.0017   0.0062  -0.0121
  67 O   :2px   -0.2061   0.4044  -0.1017  -0.0474  -0.0014  -0.0664  -0.0075
  68 O   :2py   -0.0668   0.3024  -0.0685   0.0273  -0.0004   0.0285   0.0024
  69 O   :2pz    0.0180   0.1033  -0.0111   0.1574  -0.0036   0.2049   0.0280
  70 O   :2px   -0.1482   0.2945  -0.0771  -0.0400  -0.0013  -0.0828  -0.0063
  71 O   :2py   -0.0432   0.2058  -0.0480   0.0236   0.0009   0.0358  -0.0042
  72 O   :2pz    0.0157   0.0770  -0.0076   0.1333  -0.0016   0.2532   0.0244
  74 O   :1s     0.0003   0.0049   0.0130   0.0054   0.0114  -0.0028  -0.0063
  75 O   :1s     0.0001  -0.0062  -0.0260   0.0030   0.0012   0.0042   0.0049
  76 O   :2px    0.0262  -0.1278  -0.5344   0.0124   0.0089  -0.0015  -0.0110
  77 O   :2py   -0.3734  -0.1242   0.0054  -0.0271   0.0046  -0.0103   0.0534
  78 O   :2pz    0.0384   0.0373   0.0895   0.0109   0.0221  -0.0060  -0.0147
  79 O   :2px    0.0200  -0.0909  -0.3887   0.0076   0.0011   0.0002  -0.0102
  80 O   :2py   -0.2924  -0.0967   0.0075  -0.0211   0.0020  -0.0024   0.0628
  81 O   :2pz    0.0296   0.0303   0.0767   0.0087   0.0199  -0.0114  -0.0243
  82 O   :1s    -0.0067  -0.0119   0.0027   0.0001  -0.0005   0.0011   0.0001
  83 O   :1s     0.0273   0.0063  -0.0020  -0.0001   0.0013  -0.0023  -0.0001
  84 O   :1s    -0.0384   0.1842  -0.0412  -0.0014   0.0037  -0.0137  -0.0016
  85 O   :2px   -0.0812   0.2043  -0.0530  -0.0104  -0.0056  -0.0404   0.0027
  86 O   :2py    0.0672  -0.0518   0.0111   0.0029   0.0040   0.0148  -0.0014
  87 O   :2pz   -0.1272   0.0617  -0.0227   0.0279   0.0091   0.1204  -0.0071
  88 O   :2px   -0.0796   0.2008  -0.0515  -0.0081  -0.0025  -0.0519  -0.0057
  89 O   :2py    0.0440  -0.0465   0.0147   0.0020   0.0015   0.0222  -0.0006
  90 O   :2pz   -0.1078   0.0625  -0.0199   0.0213   0.0075   0.1418   0.0060
  91 C   :1s     0.0035   0.0121  -0.0050   0.0006   0.0004  -0.0006  -0.0013
  92 C   :1s    -0.0098  -0.0331   0.0141  -0.0015   0.0003   0.0013  -0.0003
  93 C   :1s     0.0147   0.0313   0.0123  -0.0091  -0.0196   0.0176   0.0567
  94 C   :2px    0.0169  -0.0598   0.0171   0.0012   0.0024   0.0831   0.0026
  95 C   :2py   -0.0191  -0.0989   0.0333  -0.0046  -0.0018  -0.0314   0.0006
  96 C   :2pz    0.0326  -0.0042   0.0063  -0.0046  -0.0055  -0.2563  -0.0100
  97 C   :2px   -0.0777   0.1680  -0.0302  -0.0095  -0.0022   0.0783   0.0232
  98 C   :2py    0.0027   0.0757  -0.0061   0.0003  -0.0067  -0.0216   0.0107
  99 C   :2pz   -0.0049   0.0486  -0.0081   0.0156   0.0001  -0.2623  -0.0276
 100 C   :1s    -0.0008   0.0050   0.0216  -0.0054  -0.0134   0.0132   0.0214
 101 C   :1s    -0.0007  -0.0079  -0.0446   0.0141   0.0358  -0.0348  -0.0455
 102 C   :1s     0.0071  -0.0375  -0.1229   0.0147   0.0337  -0.0803  -0.1819
 103 C   :2px    0.0004   0.0255   0.1346   0.0240   0.0598  -0.0358  -0.0525
 104 C   :2py   -0.1367  -0.0391   0.0170  -0.0128   0.0056  -0.0163  -0.0459
 105 C   :2pz    0.0072   0.0139   0.0422  -0.0214  -0.0553   0.0407   0.0617
 106 C   :2px    0.0083  -0.0293  -0.0776   0.0126   0.0413  -0.0444  -0.0453
 107 C   :2py   -0.0926  -0.0248   0.0078  -0.0029   0.0029  -0.0008  -0.0844
 108 C   :2pz    0.0045   0.0359   0.1145  -0.0013   0.0005   0.0189   0.0593
 109 O   :1s     0.0026  -0.0049  -0.0128   0.0053   0.0131  -0.0077  -0.0120
 110 O   :1s    -0.0066   0.0070   0.0047  -0.0133  -0.0330   0.0165   0.0240
 111 O   :1s    -0.0133   0.0366   0.1840  -0.0195  -0.0441   0.0451   0.0862
 112 O   :2px   -0.0003  -0.0033  -0.1085   0.0059   0.0109  -0.0109  -0.0193
 113 O   :2py    0.3788   0.1252  -0.0246   0.0205   0.0240  -0.0055   0.0086
 114 O   :2pz   -0.0136   0.0511   0.1871   0.0453   0.1161  -0.0397  -0.0471
 115 O   :2px   -0.0043  -0.0226  -0.1246   0.0067   0.0130  -0.0221  -0.0448
 116 O   :2py    0.3186   0.1145  -0.0220   0.0179   0.0219  -0.0105   0.0118
 117 O   :2pz   -0.0149   0.0539   0.1979   0.0414   0.1089  -0.0466  -0.0583
 118 H   :1s    -0.0217  -0.0183   0.0063   0.0006  -0.0013   0.0026  -0.0011
 119 H   :1s     0.0001  -0.0450   0.0157  -0.0006  -0.0016   0.0092  -0.0012
 120 H   :1s     0.0470   0.0057   0.0113   0.0016   0.0003   0.0011   0.0001
 121 H   :1s     0.0139   0.0198   0.0046   0.0005   0.0010  -0.0057  -0.0020
 122 H   :1s     0.0147   0.0389   0.0060   0.0012  -0.0013   0.0017   0.0021
 123 H   :1s     0.0194   0.0403   0.0077  -0.0015  -0.0099   0.0144   0.0132
 124 H   :1s    -0.0046   0.0235  -0.0195   0.0007   0.0003  -0.0001   0.0004
 125 H   :1s    -0.0013   0.0169  -0.0137   0.0009  -0.0013   0.0034   0.0042
 126 H   :1s    -0.0438  -0.0300   0.0179  -0.0016  -0.0003  -0.0009   0.0005
 127 H   :1s    -0.0349  -0.0245   0.0172  -0.0016  -0.0001  -0.0024   0.0028
 128 H   :1s    -0.0382   0.0138   0.0571  -0.0025   0.0022  -0.0039  -0.0079
 129 H   :1s    -0.0408  -0.0005   0.0679  -0.0066  -0.0004  -0.0011  -0.0132
 130 H   :1s    -0.0029  -0.0104  -0.0029   0.0033   0.0078  -0.0035  -0.0059
 131 H   :1s    -0.0025  -0.0008   0.0345   0.0015   0.0046  -0.0066  -0.0142
 132 H   :1s     0.0358   0.0213   0.0566   0.0025  -0.0006   0.0046   0.0097
 133 H   :1s     0.0489   0.0259   0.0635   0.0042  -0.0043   0.0302   0.0323



 >>>> Total CPU  time used in SIRIUS :      3.31 seconds
 >>>> Total wall time used in SIRIUS :      3.53 seconds

 
     Date and time (Linux)  : Wed Dec 18 23:33:06 2013
     Host name              : gold                                    


                     .---------------------------------------.
                     | End of Wave Function Section (SIRIUS) |
                     `---------------------------------------'


     Order of analytical energy-derivatives available:   2
     This will be the default.

 Center of mass dipole origin  :    0.000000   -0.000000    0.000000

 Center of mass gauge origin   :    0.000000   -0.000000    0.000000


                 .------------------------------------------------.
                 | Starting in Static Property Section (ABACUS) - |
                 `------------------------------------------------'


 
     Date and time (Linux)  : Wed Dec 18 23:33:06 2013
     Host name              : gold                                    


   ***************************************************************************
   ************************ FINAL RESULTS from ABACUS ************************
   ***************************************************************************


 
     Date and time (Linux)  : Wed Dec 18 23:33:25 2013
     Host name              : gold                                    


                             Molecular geometry (au)
                             -----------------------

 C          4.2665263107           -0.6069938420            0.4889678577
 C          1.4737808630            3.6588889806           -0.8425910798
 C          5.4106733253            1.7748127338            0.4728445331
 C          4.0155917335            3.9042701198           -0.1988821875
 C         -6.5082781445            1.0432349636           -0.3792412316
 C          1.7075427918           -0.8919843627           -0.1598210306
 C          0.3243065981            1.2753574527           -0.7936344617
 O          1.8760373357           -5.3791558424            0.5002469999
 O         -3.2533146343            1.4720632123            2.7821466649
 O         -1.7179748138           -3.7304959580           -0.9024112466
 C          0.6911354953           -3.5075170905           -0.1308743322
 C         -3.8422147388            1.2572249077            0.5555747033
 O         -2.2160629754            1.1880326165           -1.5061048794
 H         -2.0398574459           -5.5497577623           -0.7585291289
 H          5.3917787591           -2.2501912756            1.0097398185
 H          0.3878563422            5.3207673728           -1.3666226328
 H          7.3924859122            1.9613962504            0.9833611715
 H          4.9075126937            5.7548525658           -0.2162812284
 H         -6.7539032240           -0.7346228297           -1.4011707707
 H         -7.8015939179            1.0551495902            1.2348480336
 H         -6.9561987920            2.6507490020           -1.5945509303





                        Molecular wave function and energy
                        ----------------------------------

     Spin multiplicity  1     State number       1     Total charge       0

     Total energy       -644.6612036202 au (Hartrees)
                        -17542.12369696 eV
                          -1692557.7292 kJ/mol


                             Relativistic corrections
                             ------------------------

     Darwin correction:                          1.3147142659 au
     Mass-velocity correction:                  -1.6515881724 au

     Total relativistic correction:             -0.3368739065 au (0.0523%)
     Non-relativistic + relativistic energy:  -644.9980775267 au




                             Molecular gradient (au)
                             -----------------------

 C         -0.0069955927           -0.0077875318           -0.0008735781
 C          0.0000542669            0.0046033218           -0.0018391567
 C         -0.0017074377            0.0068110692           -0.0015648441
 C          0.0011053617            0.0002629638            0.0003191978
 C          0.0085632756            0.0006169736           -0.0097455982
 C         -0.0071950691            0.0007885281           -0.0015810770
 C         -0.0250120910           -0.0123712912            0.0156543535
 O          0.0003980242           -0.0056397572            0.0010912511
 O         -0.0068349058            0.0031305682            0.0396196946
 O         -0.0003809939            0.0407205500           -0.0082945953
 C         -0.0117940596           -0.0213711291           -0.0008178458
 C          0.0314360517            0.0032937519           -0.0070877963
 O         -0.0083197878           -0.0046018476           -0.0446811798
 H          0.0140625780           -0.0215630279            0.0078331010
 H          0.0112758169           -0.0082965626            0.0042151274
 H         -0.0029569568            0.0117964517           -0.0023379842
 H          0.0111060272            0.0017457211            0.0028237774
 H          0.0054151619            0.0096323026            0.0003219928
 H         -0.0026773320           -0.0098307997           -0.0000627960
 H         -0.0074435133           -0.0006889836            0.0076851053
 H         -0.0020988244            0.0087487285           -0.0006771493





                                  Dipole moment
                                  -------------

                 au               Debye          C m (/(10**-30)
              1.116416           2.837646           9.465369


                             Dipole moment components
                             ------------------------

                 au               Debye          C m (/(10**-30)

      x     -0.18008855        -0.45773942        -1.52685434
      y      0.77224958         1.96286253         6.54740464
      z     -0.78586465        -1.99746857        -6.66283796


   Units:   1 a.u. =   2.54175 Debye 
            1 a.u. =   8.47835 (10**-30) C m (SI)



  Max    interatomic separation is    8.0557 Angstrom (   15.2232 Bohr)
  between atoms   20 and   17, "H     " and "H     ".

  Min HX interatomic separation is    0.9806 Angstrom (    1.8531 Bohr)

  Min YX interatomic separation is    1.2189 Angstrom (    2.3033 Bohr)


  Bond distances (Angstrom):
  --------------------------

                  atom 1     atom 2       distance
                  ------     ------       --------
  bond distance:  C          C            1.398304
  bond distance:  C          C            1.393594
  bond distance:  C          C            1.393260
  bond distance:  C          C            1.405117
  bond distance:  C          C            1.400562
  bond distance:  C          C            1.401314
  bond distance:  C          C            1.484994
  bond distance:  C          O            1.218871
  bond distance:  C          O            1.343819
  bond distance:  C          C            1.499316
  bond distance:  C          O            1.224057
  bond distance:  O          C            1.396939
  bond distance:  O          C            1.390003
  bond distance:  H          O            0.980625
  bond distance:  H          C            1.089321
  bond distance:  H          C            1.086513
  bond distance:  H          C            1.087459
  bond distance:  H          C            1.087132
  bond distance:  H          C            1.092908
  bond distance:  H          C            1.094526
  bond distance:  H          C            1.092429


  Bond angles (degrees):
  ----------------------

                  atom 1     atom 2     atom 3         angle
                  ------     ------     ------         -----
  bond angle:     C          C          C            120.833
  bond angle:     C          C          H            118.971
  bond angle:     C          C          H            120.195
  bond angle:     C          C          C            119.906
  bond angle:     C          C          H            119.831
  bond angle:     C          C          H            120.262
  bond angle:     C          C          C            120.076
  bond angle:     C          C          H            119.861
  bond angle:     C          C          H            120.063
  bond angle:     C          C          C            119.896
  bond angle:     C          C          H            120.060
  bond angle:     C          C          H            120.045
  bond angle:     C          C          H            109.888
  bond angle:     C          C          H            109.297
  bond angle:     C          C          H            109.852
  bond angle:     H          C          H            108.465
  bond angle:     H          C          H            110.684
  bond angle:     H          C          H            108.618
  bond angle:     C          C          C            118.297
  bond angle:     C          C          C            116.524
  bond angle:     C          C          C            125.177
  bond angle:     C          C          C            120.974
  bond angle:     C          C          O            116.279
  bond angle:     C          C          O            122.697
  bond angle:     C          O          H            103.144
  bond angle:     C          C          O            125.020
  bond angle:     C          C          O            114.981
  bond angle:     O          C          O            119.995
  bond angle:     C          C          O            124.345
  bond angle:     C          C          O            108.759
  bond angle:     O          C          O            126.895
  bond angle:     C          O          C            112.523




 CPU time statistics for ABACUS
 ------------------------------

 TWOTEX     00:00:19      97 %

 TOTAL      00:00:19     100 %


 >>>> Total CPU  time used in ABACUS:  19.39 seconds
 >>>> Total wall time used in ABACUS:  19.40 seconds


                   .-------------------------------------------.
                   | End of Static Property Section (ABACUS) - |
                   `-------------------------------------------'



           :::::::::::::::::::::::::::::::::::::::::::::::::::::::::::
           ::::::::::::::: Optimization Control Center :::::::::::::::
           :::::::::::::::::::::::::::::::::::::::::::::::::::::::::::



                                Next geometry (au)
                                ------------------

 C          4.3362083926           -0.5951388609            0.3681955222
 C          1.5016222913            3.6737096283           -0.7167603504
 C          5.4828676788            1.7612215962            0.3706328781
 C          4.0579331845            3.9014597283           -0.1709493766
 C         -6.5724406638            1.0365336130           -0.4809296259
 C          1.7601187231           -0.8647884191           -0.1745989267
 C          0.3735792221            1.3092112837           -0.7289881326
 O          1.9673258142           -5.3265737203            0.4688051838
 O         -3.3974526211            1.3113122020            2.7722153093
 O         -1.7659798750           -3.7234504097           -0.6111800015
 C          0.7318645257           -3.4671230539           -0.0876457369
 C         -3.9511235008            1.1893387888            0.5625300620
 O         -2.1905256401            1.2357817012           -1.3660278047
 H         -2.1764841116           -5.4941808420           -0.4662841350
 H          5.4404137173           -2.2474927439            0.8034163153
 H          0.3865670635            5.3169340902           -1.1561497557
 H          7.4653531740            1.9233018728            0.7990661691
 H          4.9327880210            5.7372042481           -0.1751665563
 H         -6.7575490788           -0.6640818813           -1.6192812833
 H         -7.9238478356            0.9886088210            1.0595122244
 H         -6.9454090072            2.6642931629           -1.6733973366





                             Optimization information
                             ------------------------

 Iteration number               :       0
 End of optimization            :       F 
 Energy at this geometry is     :    -644.661204
 Norm of gradient               :       0.101007
 Norm of step                   :       0.500001
 Updated trust radius           :       0.500000
 Total Hessian index            :       0




 **************************************************************************************
 ****************** Output of molecule and basis set info suppressed ******************
 **************************************************************************************



                     .---------------------------------------.
                     | Starting in Integral Section (HERMIT) |
                     `---------------------------------------'



    *************************************************************************
    ****************** Output from HERMIT input processing ******************
    *************************************************************************


 Threshold for neglecting two-electron integrals:  1.00D-12
 Number of two-electron integrals written:    28968337 ( 73.0% )
 Megabytes written:                            331.703

 >>>  Time used in TWOINT     is   6.27 seconds
 >>>> Total CPU  time used in HERMIT:   6.45 seconds
 >>>> Total wall time used in HERMIT:   6.45 seconds


                        .----------------------------------.
                        | End of Integral Section (HERMIT) |
                        `----------------------------------'



                   .--------------------------------------------.
                   | Starting in Wave Function Section (SIRIUS) |
                   `--------------------------------------------'


 **********************************************************************
 *SIRIUS* a direct, restricted step, second order MCSCF program       *
 **********************************************************************

 (Wave function specification suppressed here, see output above for initial geometry.)


 >>>>> DIIS optimization of Hartree-Fock <<<<<

 C1-DIIS algorithm; max error vectors =    5

 Iter      Total energy        Error norm    Delta(E)  DIIS dim.
 -----------------------------------------------------------------------------
     (Precalculated two-electron integrals are transformed to P-supermatrix elements.
      Threshold for discarding integrals :  1.00D-12 )
 >>>  Time used in FORMSUP    is   1.73 seconds
@  1    -644.655365289        3.71339D-01    5.84D-03    1
      Virial theorem: -V/T =      1.999961
@      MULPOP C      -0.16; C      -0.19; C      -0.21; C      -0.17; C      -0.52; C      -0.12; C       0.39; O      -0.56; O      -0.54; O      -0.73; 
@             C       0.78; C       0.75; O      -0.74; H       0.45; H       0.27; H       0.23; H       0.22; H       0.22; H       0.22; H       0.20; 
@             H       0.20; 
 -----------------------------------------------------------------------------
@  2    -644.670708940        1.08968D-01   -1.53D-02    2
      Virial theorem: -V/T =      1.999811
@      MULPOP C      -0.16; C      -0.20; C      -0.21; C      -0.17; C      -0.52; C      -0.13; C       0.41; O      -0.56; O      -0.53; O      -0.74; 
@             C       0.80; C       0.76; O      -0.76; H       0.44; H       0.27; H       0.23; H       0.22; H       0.22; H       0.22; H       0.21; 
@             H       0.20; 
 -----------------------------------------------------------------------------
@  3    -644.672577927        2.86168D-02   -1.87D-03    3
      Virial theorem: -V/T =      1.999928
@      MULPOP C      -0.16; C      -0.20; C      -0.21; C      -0.17; C      -0.52; C      -0.13; C       0.41; O      -0.56; O      -0.54; O      -0.73; 
@             C       0.79; C       0.76; O      -0.76; H       0.44; H       0.27; H       0.23; H       0.22; H       0.22; H       0.22; H       0.20; 
@             H       0.20; 
 -----------------------------------------------------------------------------
@  4    -644.672682167        1.42914D-02   -1.04D-04    4
      Virial theorem: -V/T =      1.999893
@      MULPOP C      -0.16; C      -0.20; C      -0.21; C      -0.17; C      -0.52; C      -0.13; C       0.41; O      -0.56; O      -0.53; O      -0.74; 
@             C       0.79; C       0.76; O      -0.76; H       0.44; H       0.27; H       0.23; H       0.22; H       0.22; H       0.22; H       0.20; 
@             H       0.20; 
 -----------------------------------------------------------------------------
@  5    -644.672707681        5.52707D-03   -2.55D-05    5
      Virial theorem: -V/T =      1.999895
@      MULPOP C      -0.16; C      -0.20; C      -0.21; C      -0.17; C      -0.52; C      -0.13; C       0.41; O      -0.56; O      -0.54; O      -0.74; 
@             C       0.79; C       0.76; O      -0.76; H       0.44; H       0.27; H       0.23; H       0.22; H       0.22; H       0.22; H       0.20; 
@             H       0.20; 
 -----------------------------------------------------------------------------
@  6    -644.672712975        2.41015D-03   -5.29D-06    5
      Virial theorem: -V/T =      1.999903
@      MULPOP C      -0.16; C      -0.20; C      -0.21; C      -0.17; C      -0.52; C      -0.13; C       0.41; O      -0.56; O      -0.53; O      -0.74; 
@             C       0.79; C       0.76; O      -0.76; H       0.44; H       0.27; H       0.23; H       0.22; H       0.22; H       0.22; H       0.20; 
@             H       0.20; 
 -----------------------------------------------------------------------------
@  7    -644.672714396        1.04492D-03   -1.42D-06    5
      Virial theorem: -V/T =      1.999900
@      MULPOP C      -0.16; C      -0.20; C      -0.21; C      -0.17; C      -0.52; C      -0.13; C       0.41; O      -0.56; O      -0.53; O      -0.74; 
@             C       0.79; C       0.76; O      -0.76; H       0.44; H       0.27; H       0.23; H       0.22; H       0.22; H       0.22; H       0.20; 
@             H       0.20; 
 -----------------------------------------------------------------------------
@  8    -644.672714696        4.99691D-04   -2.99D-07    5
      Virial theorem: -V/T =      1.999901
@      MULPOP C      -0.16; C      -0.20; C      -0.21; C      -0.17; C      -0.52; C      -0.13; C       0.41; O      -0.56; O      -0.53; O      -0.74; 
@             C       0.79; C       0.76; O      -0.76; H       0.44; H       0.27; H       0.23; H       0.22; H       0.22; H       0.22; H       0.20; 
@             H       0.20; 
 -----------------------------------------------------------------------------
@  9    -644.672714755        2.09494D-04   -5.89D-08    5
      Virial theorem: -V/T =      1.999901
@      MULPOP C      -0.16; C      -0.20; C      -0.21; C      -0.17; C      -0.52; C      -0.13; C       0.41; O      -0.56; O      -0.53; O      -0.74; 
@             C       0.79; C       0.76; O      -0.76; H       0.44; H       0.27; H       0.23; H       0.22; H       0.22; H       0.22; H       0.20; 
@             H       0.20; 
 -----------------------------------------------------------------------------
@ 10    -644.672714765        8.41105D-05   -1.08D-08    5
      Virial theorem: -V/T =      1.999901
@      MULPOP C      -0.16; C      -0.20; C      -0.21; C      -0.17; C      -0.52; C      -0.13; C       0.41; O      -0.56; O      -0.53; O      -0.74; 
@             C       0.79; C       0.76; O      -0.76; H       0.44; H       0.27; H       0.23; H       0.22; H       0.22; H       0.22; H       0.20; 
@             H       0.20; 
 -----------------------------------------------------------------------------
@ 11    -644.672714767        4.75105D-05   -1.14D-09    5
      Virial theorem: -V/T =      1.999901
@      MULPOP C      -0.16; C      -0.20; C      -0.21; C      -0.17; C      -0.52; C      -0.13; C       0.41; O      -0.56; O      -0.53; O      -0.74; 
@             C       0.79; C       0.76; O      -0.76; H       0.44; H       0.27; H       0.23; H       0.22; H       0.22; H       0.22; H       0.20; 
@             H       0.20; 
 -----------------------------------------------------------------------------
@ 12    -644.672714767        2.05685D-05   -2.69D-10    5
      Virial theorem: -V/T =      1.999901
@      MULPOP C      -0.16; C      -0.20; C      -0.21; C      -0.17; C      -0.52; C      -0.13; C       0.41; O      -0.56; O      -0.53; O      -0.74; 
@             C       0.79; C       0.76; O      -0.76; H       0.44; H       0.27; H       0.23; H       0.22; H       0.22; H       0.22; H       0.20; 
@             H       0.20; 
 -----------------------------------------------------------------------------
@ 13    -644.672714767        9.01979D-06   -4.27D-11    5

@ *** DIIS converged in  13 iterations !
@     Converged SCF energy, gradient:   -644.672714766835    9.02D-06
    - total time used in SIRFCK :              0.00 seconds


 *** SCF orbital energy analysis ***

 Only the five lowest virtual orbital energies printed in each symmetry.

 Number of electrons :   94
 Orbital occupations :   47

 Sym       Hartree-Fock orbital energies

  1    -20.62456824   -20.62424472   -20.57435141   -20.57246197   -11.42371597
       -11.41666447   -11.34101836   -11.28083159   -11.27057457   -11.26937442
       -11.25990332   -11.25694675   -11.24790533    -1.49631778    -1.48661007
        -1.39326672    -1.37990679    -1.18928271    -1.07151581    -1.06072708
        -1.01986689    -0.92024979    -0.87288775    -0.83098723    -0.79883743
        -0.73254811    -0.71656524    -0.69966048    -0.69406939    -0.67531337
        -0.66654439    -0.64490061    -0.63516457    -0.62546254    -0.59390436
        -0.58552190    -0.57530882    -0.56116674    -0.53600042    -0.52426039
        -0.52045461    -0.48507052    -0.47305043    -0.46475817    -0.45630834
        -0.36601882    -0.35545996     0.07286164     0.12574117     0.16464685
         0.21486643     0.21767073

    E(LUMO) :     0.07286164 au (symmetry 1)
  - E(HOMO) :    -0.35545996 au (symmetry 1)
  ------------------------------------------
    gap     :     0.42832160 au

 >>> Writing SIRIFC interface file <<<

 >>>> CPU and wall time for SCF :       3.481       7.361


                       .-----------------------------------.
                       | >>> Final results from SIRIUS <<< |
                       `-----------------------------------'


@    Spin multiplicity:           1
@    Spatial symmetry:            1
@    Total charge of molecule:    0

@    Final HF energy:            -644.672714766835                 
@    Nuclear repulsion:           783.050017641562
@    Electronic energy:         -1427.722732408396

@    Final gradient norm:           0.000009019787

 
     Date and time (Linux)  : Wed Dec 18 23:33:39 2013
     Host name              : gold                                    



 >>>> Total CPU  time used in SIRIUS :      3.52 seconds
 >>>> Total wall time used in SIRIUS :      7.40 seconds

 
     Date and time (Linux)  : Wed Dec 18 23:33:39 2013
     Host name              : gold                                    


                     .---------------------------------------.
                     | End of Wave Function Section (SIRIUS) |
                     `---------------------------------------'

 Trust radius increased due to good ratio.
 Updated trust radius   0.60000

     Order of analytical energy-derivatives available:   2
     This will be the default.

 Center of mass dipole origin  :    0.004816   -0.002176    0.028133

[...]

 
     Date and time (Linux)  : Wed Dec 18 23:42:49 2013
     Host name              : gold                                    



 >>>> Total CPU  time used in SIRIUS :      2.47 seconds
 >>>> Total wall time used in SIRIUS :      3.83 seconds

 
     Date and time (Linux)  : Wed Dec 18 23:42:49 2013
     Host name              : gold                                    


                     .---------------------------------------.
                     | End of Wave Function Section (SIRIUS) |
                     `---------------------------------------'

 Trust radius increased due to good ratio.
 Updated trust radius   0.00356

     Order of analytical energy-derivatives available:   2
     This will be the default.

 Center of mass dipole origin  :   -0.013833    0.022742    0.077606

 Center of mass gauge origin   :   -0.013833    0.022742    0.077606


                 .------------------------------------------------.
                 | Starting in Static Property Section (ABACUS) - |
                 `------------------------------------------------'


 
     Date and time (Linux)  : Wed Dec 18 23:42:49 2013
     Host name              : gold                                    


   ***************************************************************************
   ************************ FINAL RESULTS from ABACUS ************************
   ***************************************************************************


 
     Date and time (Linux)  : Wed Dec 18 23:43:09 2013
     Host name              : gold                                    


 CPU time statistics for ABACUS
 ------------------------------

 TWOTEX     00:00:19      97 %

 TOTAL      00:00:20     100 %


 >>>> Total CPU  time used in ABACUS:  19.82 seconds
 >>>> Total wall time used in ABACUS:  19.84 seconds


                   .-------------------------------------------.
                   | End of Static Property Section (ABACUS) - |
                   `-------------------------------------------'



           :::::::::::::::::::::::::::::::::::::::::::::::::::::::::::
           ::::::::::::::: Optimization Control Center :::::::::::::::
           :::::::::::::::::::::::::::::::::::::::::::::::::::::::::::



                               Final geometry (au)
                               -------------------

 C          4.3228787418           -0.5771958315            0.3330001654
 C          1.6022427766            3.7656538445           -0.6583965363
 C          5.5501538514            1.7255838647            0.2626749208
 C          4.1805359889            3.9048635584           -0.2407744118
 C         -6.5458542431            0.8648322589           -0.5776042342
 C          1.7256964835           -0.7608270565           -0.0922198455
 C          0.3867547543            1.4543951921           -0.5777395489
 O          1.8852790786           -5.2136172290            0.4647974894
 O         -3.5600432013            0.9407449960            2.8670902709
 O         -1.8519053406           -3.5218490265           -0.4566198394
 C          0.6484158336           -3.3312284343            0.0109982260
 C         -4.0199751721            1.0615235866            0.6398973728
 O         -2.1795021783            1.4714507617           -1.1332661445
 H         -2.4426300226           -5.2218766519           -0.3303150785
 H          5.3456529671           -2.2806315283            0.7141036507
 H          0.5074225237            5.4201128994           -1.0543120664
 H          7.5455535862            1.8206831627            0.5941074580
 H          5.1104921909            5.7042052517           -0.3047602749
 H         -6.5543667228           -0.7413979378           -1.8411253501
 H         -7.9823607580            0.6429878470            0.8492970579
 H         -6.9186116636            2.5376672771           -1.6918186393





                             Optimization information
                             ------------------------

 Iteration number               :      18
 End of optimization            :       T 
 Energy at this geometry is     :    -644.675706
 Energy change from last geom.  :      -0.000000
 Norm of gradient               :       0.000049
 Norm of step                   :       0.001738
 Updated trust radius           :       0.003557
 Total Hessian index            :       0



 Center of mass dipole origin  :   -0.013833    0.022742    0.077606

 Center of mass gauge origin   :   -0.013833    0.022742    0.077606


                 .------------------------------------------------.
                 | Starting in Static Property Section (ABACUS) - |
                 `------------------------------------------------'


 
     Date and time (Linux)  : Wed Dec 18 23:43:09 2013
     Host name              : gold                                    


   ***************************************************************************
   ************************ FINAL RESULTS from ABACUS ************************
   ***************************************************************************


 
     Date and time (Linux)  : Wed Dec 18 23:43:09 2013
     Host name              : gold                                    


                             Molecular geometry (au)
                             -----------------------

 C          4.3228787418           -0.5771958315            0.3330001654
 C          1.6022427766            3.7656538445           -0.6583965363
 C          5.5501538514            1.7255838647            0.2626749208
 C          4.1805359889            3.9048635584           -0.2407744118
 C         -6.5458542431            0.8648322589           -0.5776042342
 C          1.7256964835           -0.7608270565           -0.0922198455
 C          0.3867547543            1.4543951921           -0.5777395489
 O          1.8852790786           -5.2136172290            0.4647974894
 O         -3.5600432013            0.9407449960            2.8670902709
 O         -1.8519053406           -3.5218490265           -0.4566198394
 C          0.6484158336           -3.3312284343            0.0109982260
 C         -4.0199751721            1.0615235866            0.6398973728
 O         -2.1795021783            1.4714507617           -1.1332661445
 H         -2.4426300226           -5.2218766519           -0.3303150785
 H          5.3456529671           -2.2806315283            0.7141036507
 H          0.5074225237            5.4201128994           -1.0543120664
 H          7.5455535862            1.8206831627            0.5941074580
 H          5.1104921909            5.7042052517           -0.3047602749
 H         -6.5543667228           -0.7413979378           -1.8411253501
 H         -7.9823607580            0.6429878470            0.8492970579
 H         -6.9186116636            2.5376672771           -1.6918186393





                        Molecular wave function and energy
                        ----------------------------------

     Spin multiplicity  1     State number       1     Total charge       0

     Total energy       -644.6757062128 au (Hartrees)
                        -17542.51833259 eV
                          -1692595.8057 kJ/mol


                             Relativistic corrections
                             ------------------------

     Darwin correction:                          1.3145214271 au
     Mass-velocity correction:                  -1.6513788688 au

     Total relativistic correction:             -0.3368574417 au (0.0523%)
     Non-relativistic + relativistic energy:  -645.0125636545 au




                                  Dipole moment
                                  -------------

                 au               Debye          C m (/(10**-30)
              1.215683           3.089957          10.306988


                             Dipole moment components
                             ------------------------

                 au               Debye          C m (/(10**-30)

      x     -0.24547624        -0.62393832        -2.08123422
      y      0.77848398         1.97870878         6.60026204
      z     -0.90088227        -2.28981418        -7.63799794


   Units:   1 a.u. =   2.54175 Debye 
            1 a.u. =   8.47835 (10**-30) C m (SI)



  Max    interatomic separation is    8.2417 Angstrom (   15.5746 Bohr)
  between atoms   20 and   17, "H     " and "H     ".

  Min HX interatomic separation is    0.9547 Angstrom (    1.8042 Bohr)

  Min YX interatomic separation is    1.2051 Angstrom (    2.2774 Bohr)


  Bond distances (Angstrom):
  --------------------------

                  atom 1     atom 2       distance
                  ------     ------       --------
  bond distance:  C          C            1.381339
  bond distance:  C          C            1.384118
  bond distance:  C          C            1.387875
  bond distance:  C          C            1.396054
  bond distance:  C          C            1.382544
  bond distance:  C          C            1.393627
  bond distance:  C          C            1.475840
  bond distance:  C          O            1.215859
  bond distance:  C          O            1.349828
  bond distance:  C          C            1.487455
  bond distance:  C          O            1.205144
  bond distance:  O          C            1.389488
  bond distance:  O          C            1.369689
  bond distance:  H          O            0.954722
  bond distance:  H          C            1.070587
  bond distance:  H          C            1.070537
  bond distance:  H          C            1.071569
  bond distance:  H          C            1.072357
  bond distance:  H          C            1.081457
  bond distance:  H          C            1.077862
  bond distance:  H          C            1.081750


  Bond angles (degrees):
  ----------------------

                  atom 1     atom 2     atom 3         angle
                  ------     ------     ------         -----
  bond angle:     C          C          C            121.327
  bond angle:     C          C          H            120.675
  bond angle:     C          C          H            117.998
  bond angle:     C          C          C            120.050
  bond angle:     C          C          H            121.412
  bond angle:     C          C          H            118.538
  bond angle:     C          C          C            119.516
  bond angle:     C          C          H            120.021
  bond angle:     C          C          H            120.463
  bond angle:     C          C          C            120.079
  bond angle:     C          C          H            119.642
  bond angle:     C          C          H            120.279
  bond angle:     C          C          H            109.059
  bond angle:     C          C          H            109.751
  bond angle:     C          C          H            110.040
  bond angle:     H          C          H            110.156
  bond angle:     H          C          H            107.784
  bond angle:     H          C          H            110.021
  bond angle:     C          C          C            118.144
  bond angle:     C          C          C            116.005
  bond angle:     C          C          C            125.851
  bond angle:     C          C          C            120.883
  bond angle:     C          C          O            116.258
  bond angle:     C          C          O            122.776
  bond angle:     C          O          H            112.242
  bond angle:     C          C          O            123.673
  bond angle:     C          C          O            116.149
  bond angle:     O          C          O            120.175
  bond angle:     C          C          O            126.967
  bond angle:     C          C          O            110.691
  bond angle:     O          C          O            122.327
  bond angle:     C          O          C            123.298




 CPU time statistics for ABACUS
 ------------------------------




 >>>> Total CPU  time used in ABACUS:   0.28 seconds
 >>>> Total wall time used in ABACUS:   0.28 seconds


                   .-------------------------------------------.
                   | End of Static Property Section (ABACUS) - |
                   `-------------------------------------------'



          <<<<<<<<<<<<<<<<<<<<<<<<<<<<<<<<<<<<<<<<<<<<<<<<<<<<<<<<<<<<<<
          <<<<<<<<<<<<<<<<<<<<  End of Optimization <<<<<<<<<<<<<<<<<<<<
          <<<<<<<<<<<<<<<<<<<<<<<<<<<<<<<<<<<<<<<<<<<<<<<<<<<<<<<<<<<<<<



                                  Final geometry
                                  --------------

 C          4.3228787418           -0.5771958315            0.3330001654
 C          1.6022427766            3.7656538445           -0.6583965363
 C          5.5501538514            1.7255838647            0.2626749208
 C          4.1805359889            3.9048635584           -0.2407744118
 C         -6.5458542431            0.8648322589           -0.5776042342
 C          1.7256964835           -0.7608270565           -0.0922198455
 C          0.3867547543            1.4543951921           -0.5777395489
 O          1.8852790786           -5.2136172290            0.4647974894
 O         -3.5600432013            0.9407449960            2.8670902709
 O         -1.8519053406           -3.5218490265           -0.4566198394
 C          0.6484158336           -3.3312284343            0.0109982260
 C         -4.0199751721            1.0615235866            0.6398973728
 O         -2.1795021783            1.4714507617           -1.1332661445
 H         -2.4426300226           -5.2218766519           -0.3303150785
 H          5.3456529671           -2.2806315283            0.7141036507
 H          0.5074225237            5.4201128994           -1.0543120664
 H          7.5455535862            1.8206831627            0.5941074580
 H          5.1104921909            5.7042052517           -0.3047602749
 H         -6.5543667228           -0.7413979378           -1.8411253501
 H         -7.9823607580            0.6429878470            0.8492970579
 H         -6.9186116636            2.5376672771           -1.6918186393



@ Iter      Energy        Change       GradNorm  Index   StepLen    TrustRad #Rej
@ -------------------------------------------------------------------------------
@   0     -644.661204     0.000000     0.101007    0    0.500001    0.500000   0 
@   1     -644.672715    -0.011511     0.035151    0    0.600004    0.600001   0 
@   2     -644.673934    -0.001219     0.037125    0    0.420001*   0.420003   0 
@   3     -644.674420    -0.000486     0.031770    0    0.294001    0.294001   0 
@   4     -644.675291    -0.000871     0.016711    0    0.294007    0.294001   0 
@   5     -644.675381    -0.000090     0.015347    0    0.205804    0.205805   0 
@   6     -644.675495    -0.000114     0.010643    0    0.144062    0.144063   0 
@   7     -644.675603    -0.000108     0.007824    0    0.100843    0.100844   0 
@   8     -644.675675    -0.000072     0.002863    0    0.031203*   0.100843   1 
@   9     -644.675689    -0.000014     0.001590    0    0.031204    0.031203   0 
@  10     -644.675694    -0.000005     0.000665    0    0.032921*   0.037444   0 
@  11     -644.675697    -0.000003     0.001118    0    0.047407    0.047407   0 
@  12     -644.675702    -0.000005     0.000777    0    0.056890    0.056888   0 
@  13     -644.675705    -0.000003     0.000825    0    0.055436*   0.068268   0 
@  14     -644.675705    -0.000001     0.000629    0    0.013990*   0.055436   0 
@  15     -644.675706    -0.000000     0.000402    0    0.009793    0.009793   0 
@  16     -644.675706    -0.000000     0.000219    0    0.004692*   0.009793   0 
@  17     -644.675706    -0.000000     0.000160    0    0.002964*   0.003284   0 
@  18     -644.675706    -0.000000     0.000049    0    0.001738*   0.003557   0 

@  *) Newton step taken.

  Max    interatomic separation is    8.2417 Angstrom (   15.5746 Bohr)
  between atoms   20 and   17, "H     " and "H     ".

  Min HX interatomic separation is    0.9547 Angstrom (    1.8042 Bohr)

  Min YX interatomic separation is    1.2051 Angstrom (    2.2774 Bohr)


  Bond distances (Angstrom):
  --------------------------

                  atom 1     atom 2       distance
                  ------     ------       --------
  bond distance:  C          C            1.381339
  bond distance:  C          C            1.384118
  bond distance:  C          C            1.387875
  bond distance:  C          C            1.396054
  bond distance:  C          C            1.382544
  bond distance:  C          C            1.393627
  bond distance:  C          C            1.475840
  bond distance:  C          O            1.215859
  bond distance:  C          O            1.349828
  bond distance:  C          C            1.487455
  bond distance:  C          O            1.205144
  bond distance:  O          C            1.389488
  bond distance:  O          C            1.369689
  bond distance:  H          O            0.954722
  bond distance:  H          C            1.070587
  bond distance:  H          C            1.070537
  bond distance:  H          C            1.071569
  bond distance:  H          C            1.072357
  bond distance:  H          C            1.081457
  bond distance:  H          C            1.077862
  bond distance:  H          C            1.081750


  Bond angles (degrees):
  ----------------------

                  atom 1     atom 2     atom 3         angle
                  ------     ------     ------         -----
  bond angle:     C          C          C            121.327
  bond angle:     C          C          H            120.675
  bond angle:     C          C          H            117.998
  bond angle:     C          C          C            120.050
  bond angle:     C          C          H            121.412
  bond angle:     C          C          H            118.538
  bond angle:     C          C          C            119.516
  bond angle:     C          C          H            120.021
  bond angle:     C          C          H            120.463
  bond angle:     C          C          C            120.079
  bond angle:     C          C          H            119.642
  bond angle:     C          C          H            120.279
  bond angle:     C          C          H            109.059
  bond angle:     C          C          H            109.751
  bond angle:     C          C          H            110.040
  bond angle:     H          C          H            110.156
  bond angle:     H          C          H            107.784
  bond angle:     H          C          H            110.021
  bond angle:     C          C          C            118.144
  bond angle:     C          C          C            116.005
  bond angle:     C          C          C            125.851
  bond angle:     C          C          C            120.883
  bond angle:     C          C          O            116.258
  bond angle:     C          C          O            122.776
  bond angle:     C          O          H            112.242
  bond angle:     C          C          O            123.673
  bond angle:     C          C          O            116.149
  bond angle:     O          C          O            120.175
  bond angle:     C          C          O            126.967
  bond angle:     C          C          O            110.691
  bond angle:     O          C          O            122.327
  bond angle:     C          O          C            123.298



@ Geometry converged in 19 iterations!

@ Energy at final geometry is       :    -644.675706 a.u.
@ Energy change during optimization :      -0.014503 a.u.
@                                            -38.077 kJ/mol
 
 >>>> Total CPU  time used in DALTON:  9 minutes 32 seconds
 >>>> Total wall time used in DALTON: 10 minutes 14 seconds

 
     Date and time (Linux)  : Wed Dec 18 23:43:09 2013
     Host name              : gold                                    
