    -----------------------------------------------------------------------
          PSI4: An Open-Source Ab Initio Electronic Structure Package
                              PSI 4.0.0-beta5 Driver

    J. M. Turney, A. C. Simmonett, R. M. Parrish, E. G. Hohenstein,
    F. A. Evangelista, J. T. Fermann, B. J. Mintz, L. A. Burns, J. J. Wilke,
    M. L. Abrams, N. J. Russ, M. L. Leininger, C. L. Janssen, E. T. Seidl,
    W. D. Allen, H. F. Schaefer, R. A. King, E. F. Valeev, C. D. Sherrill,
    and T. D. Crawford, WIREs Comput. Mol. Sci., (2011) (doi: 10.1002/wcms.93)

                         Additional Contributions by
    A. E. DePrince, M. Saitow, U. Bozkaya, A. Yu. Sokolov
    -----------------------------------------------------------------------

    Process ID:   3889
    PSI4DATADIR: /usr/share/psi

    Using LocalCommunicator (Number of processes = 1)

    Memory level set to 256.000 MB

  ==> Input File <==

--------------------------------------------------------------------------
#! RHF 6-31G energy for the qmspeedtest molecule, with Cartesian input.

molecule qmspeedtest {
C          2.05639       -0.16543        0.39727
C          0.68890        2.02854       -0.64816
C          2.74071        1.02327        0.12533
C          2.05734        2.11782       -0.40016
C         -3.59396        1.03209        0.04589
C          0.67738       -0.27507        0.15097
C          0.00274        0.84234       -0.35887
O          0.63293       -2.54526        0.93360
O         -1.76452        1.43252        1.56571
O         -1.24894       -1.68411        0.12975
C          0.05278       -1.58881        0.44958
C         -2.15199        1.12841        0.44513
O         -1.36167        0.82832       -0.65825
H         -1.47652       -2.60111        0.39232
H          2.60948       -1.01173        0.80284
H          0.15708        2.88266       -1.05823
H          3.80777        1.09126        0.32364
H          2.59044        3.04081       -0.61405
H         -3.81640        0.02049       -0.30287
H         -4.22480        1.24591        0.91440
H         -3.81296        1.76576       -0.73332
}

set globals = {
    basis      		6-31G
    scf_type            out_of_core
    df_scf_guess        false
}

thisenergy = optimize('b3lyp')

--------------------------------------------------------------------------

*** tstart() called on hartree
*** at Mon Dec 23 18:23:42 2013

	There are an even number of electrons - assuming singlet.
	Specify the multiplicity with the MULTP option in the
	input if this is incorrect


         ---------------------------------------------------------
                                   SCF
            by Justin Turney, Rob Parrish, and Andy Simmonett
                              RKS Reference
                        1 Threads,    256 MiB Core
         ---------------------------------------------------------

  ==> Geometry <==

    Molecular point group: c1
    Full point group: C1

    Geometry (in Angstrom), charge = 0, multiplicity = 1:

       Center              X                  Y                   Z       
    ------------   -----------------  -----------------  -----------------
           C          2.243519388986    -0.436010072222     0.209929128352
           C          0.876029388986     1.757959927778    -0.835500871648
           C          2.927839388986     0.752689927778    -0.062010871648
           C          2.244469388986     1.847239927778    -0.587500871648
           C         -3.406830611014     0.761509927778    -0.141450871648
           C          0.864509388986    -0.545650072222    -0.036370871648
           C          0.189869388986     0.571759927778    -0.546210871648
           O          0.820059388986    -2.815840072222     0.746259128352
           O         -1.577390611014     1.161939927778     1.378369128352
           O         -1.061810611014    -1.954690072222    -0.057590871648
           C          0.239909388986    -1.859390072222     0.262239128352
           C         -1.964860611014     0.857829927778     0.257789128352
           O         -1.174540611014     0.557739927778    -0.845590871648
           H         -1.289390611014    -2.871690072222     0.204979128352
           H          2.796609388986    -1.282310072222     0.615499128352
           H          0.344209388986     2.612079927778    -1.245570871648
           H          3.994899388986     0.820679927778     0.136299128352
           H          2.777569388986     2.770229927778    -0.801390871648
           H         -3.629270611014    -0.250090072222    -0.490210871648
           H         -4.037670611014     0.975329927778     0.727059128352
           H         -3.625830611014     1.495179927778    -0.920660871648

  Running in c1 symmetry.

  Nuclear repulsion =  782.661162009394275

  Charge       = 0
  Multiplicity = 1
  Electrons    = 94
  Nalpha       = 47
  Nbeta        = 47

  ==> Algorithm <==

  SCF Algorithm Type is OUT_OF_CORE.
  DIIS enabled.
  MOM disabled.
  Fractional occupation disabled.
  Guess Type is CORE.
  Energy threshold   = 1.00e-08
  Density threshold  = 1.00e-08
  Integral threshold = 0.00e+00

  ==> Primary Basis <==

  Basis Set: 6-31G
    Number of shells: 81
    Number of basis function: 133
    Number of Cartesian functions: 133
    Spherical Harmonics?: false
    Max angular momentum: 1

  ==> DFT Potential <==

   => B3LYP Composite Functional <= 

    B3LYP Hybrid-GGA Exchange-Correlation Functional

    P.J. Stephens et. al., J. Phys. Chem., 98, 11623-11627, 1994

    Points   =           5000
    Deriv    =              1
    GGA      =           TRUE
    Meta     =          FALSE

    X_LRC        =          FALSE
    X_Hybrid     =           TRUE
    X_Alpha      =   2.000000E-01
    X_Omega      =   0.000000E+00
    C_LRC        =          FALSE
    C_Hybrid     =          FALSE
    C_SCS_Hybrid =          FALSE
    C_Alpha      =   0.000000E+00
    C_SS_Alpha   =   0.000000E+00
    C_OS_Alpha   =   0.000000E+00

   => Exchange Functionals <=

    0.8000  B3_X
    0.2000    HF 

   => Correlation Functionals <=

    0.1900 VWN3RPA_C
    0.8100 LYP_C
    0.0000 DF-MP2 

   => Molecular Quadrature <=

    Radial Scheme    =       TREUTLER
    Pruning Scheme   =           FLAT
    Nuclear Scheme   =       TREUTLER

    BS radius alpha  =              1
    Pruning alpha    =              1
    Radial Points    =             75
    Spherical Points =            302
    Total Points     =         460977
    Total Blocks     =            732
    Max Points       =           1000
    Max Functions    =            124

  ==> Pre-Iterations <==

   -------------------------------------------------------
    Irrep   Nso     Nmo     Nalpha   Nbeta   Ndocc  Nsocc
   -------------------------------------------------------
     A        133     133       0       0       0       0
   -------------------------------------------------------
    Total     133     133      47      47      47       0
   -------------------------------------------------------

 OEINTS: Wrapper to libmints.
   by Justin Turney

   Calculation information:
      Number of atoms:                  21
      Number of AO shells:              81
      Number of SO shells:              81
      Number of primitives:            214
      Number of atomic orbitals:       133
      Number of basis functions:       133

      Number of irreps:                  1
      Number of functions per irrep: [ 133 ]

      Overlap, kinetic, potential, dipole, and quadrupole integrals
        stored in file 35.

  ==> Integral Setup <==

 MINTS: Wrapper to libmints.
   by Justin Turney

   Calculation information:
      Number of atoms:                  21
      Number of AO shells:              81
      Number of SO shells:              81
      Number of primitives:            214
      Number of atomic orbitals:       133
      Number of basis functions:       133

      Number of irreps:                  1
      Integral cutoff                 0.00e+00
      Number of functions per irrep: [ 133 ]

      Overlap, kinetic, potential, dipole, and quadrupole integrals
        stored in file 35.

      Computing two-electron integrals...done
      Computed 39700633 non-zero two-electron integrals.
        Stored in file 33.

  ==> DiskJK: Disk-Based J/K Matrices <==

    J tasked:                  Yes
    K tasked:                  Yes
    wK tasked:                  No
    Memory (MB):               183
    Schwarz Cutoff:          1E-12

  Minimum eigenvalue in the overlap matrix is 5.3740072090E-04.
  Using Symmetric Orthogonalization.
  SCF Guess: Core (One-Electron) Hamiltonian.

  ==> Iterations <==

                        Total Energy        Delta E     RMS |[F,P]|

   @RKS iter   1:  -532.54225481550498   -5.32542e+02   5.21160e-02 
   @RKS iter   2:  -420.65902012925835    1.11883e+02   4.93714e-02 DIIS
   @RKS iter   3:  -550.82860642659966   -1.30170e+02   6.27885e-02 DIIS
   @RKS iter   4:  -609.54438242243168   -5.87158e+01   3.74136e-02 DIIS
   @RKS iter   5:  -615.59825402054832   -6.05387e+00   4.25632e-02 DIIS
   @RKS iter   6:  -623.46874255981447   -7.87049e+00   4.16666e-02 DIIS
   @RKS iter   7:  -621.65878097157542    1.80996e+00   4.07451e-02 DIIS
   @RKS iter   8:  -621.80280406310681   -1.44023e-01   4.05198e-02 DIIS
   @RKS iter   9:  -626.27578775115853   -4.47298e+00   4.15962e-02 DIIS
   @RKS iter  10:  -623.76459123276004    2.51120e+00   4.23893e-02 DIIS
   @RKS iter  11:  -623.50497741562322    2.59614e-01   4.24157e-02 DIIS
   @RKS iter  12:  -617.25669608072849    6.24828e+00   4.31034e-02 DIIS
   @RKS iter  13:  -616.62603418117305    6.30662e-01   4.38391e-02 DIIS
   @RKS iter  14:  -389.93449525118183    2.26692e+02   6.37832e-02 DIIS
   @RKS iter  15:  -630.09317769515690   -2.40159e+02   3.05295e-02 DIIS
   @RKS iter  16:  -393.35622242493582    2.36737e+02   7.98026e-02 DIIS
   @RKS iter  17:  -598.79449202685942   -2.05438e+02   4.91780e-02 DIIS
   @RKS iter  18:  -624.30140163202998   -2.55069e+01   4.04735e-02 DIIS
   @RKS iter  19:  -603.26262780287823    2.10388e+01   4.12538e-02 DIIS
   @RKS iter  20:  -642.31415073114681   -3.90515e+01   1.73069e-02 DIIS
   @RKS iter  21:  -647.46209765822971   -5.14795e+00   9.71586e-03 DIIS
   @RKS iter  22:  -648.14836055308047   -6.86263e-01   6.13070e-03 DIIS
   @RKS iter  23:  -648.44702643409153   -2.98666e-01   2.05799e-03 DIIS
   @RKS iter  24:  -648.46816102896901   -2.11346e-02   1.39462e-03 DIIS
   @RKS iter  25:  -648.48384157302291   -1.56805e-02   5.33104e-04 DIIS
   @RKS iter  26:  -648.48553774176708   -1.69617e-03   3.10721e-04 DIIS
   @RKS iter  27:  -648.48639362942868   -8.55888e-04   1.42564e-04 DIIS
   @RKS iter  28:  -648.48658492858112   -1.91299e-04   3.28870e-05 DIIS
   @RKS iter  29:  -648.48659328948054   -8.36090e-06   1.65540e-05 DIIS
   @RKS iter  30:  -648.48659536999378   -2.08051e-06   5.46349e-06 DIIS
   @RKS iter  31:  -648.48659553451000   -1.64516e-07   2.95677e-06 DIIS
   @RKS iter  32:  -648.48659559737928   -6.28693e-08   5.40331e-07 DIIS
   @RKS iter  33:  -648.48659559937391   -1.99464e-09   2.26631e-07 DIIS
   @RKS iter  34:  -648.48659559949226   -1.18348e-10   1.80936e-07 DIIS
   @RKS iter  35:  -648.48659559976932   -2.77055e-10   4.77183e-08 DIIS
   @RKS iter  36:  -648.48659559975511    1.42109e-11   1.67196e-08 DIIS
   @RKS iter  37:  -648.48659559977239   -1.72804e-11   4.38892e-09 DIIS

  ==> Post-Iterations <==

	Orbital Energies (a.u.)
	-----------------------

	Doubly Occupied:                                                      

	   1A    -19.208091     2A    -19.204503     3A    -19.154075  
	   4A    -19.150447     5A    -10.339461     6A    -10.335896  
	   7A    -10.273374     8A    -10.225053     9A    -10.212101  
	  10A    -10.211116    11A    -10.208782    12A    -10.205233  
	  13A    -10.193496    14A     -1.145788    15A     -1.129969  
	  16A     -1.049694    17A     -1.041287    18A     -0.883505  
	  19A     -0.793982    20A     -0.784810    21A     -0.748206  
	  22A     -0.683618    23A     -0.648569    24A     -0.614203  
	  25A     -0.591128    26A     -0.533077    27A     -0.513448  
	  28A     -0.497742    29A     -0.493149    30A     -0.480005  
	  31A     -0.475733    32A     -0.465693    33A     -0.460946  
	  34A     -0.451759    35A     -0.413667    36A     -0.410456  
	  37A     -0.407036    38A     -0.396386    39A     -0.382356  
	  40A     -0.372212    41A     -0.368575    42A     -0.327403  
	  43A     -0.315865    44A     -0.290895    45A     -0.284095  
	  46A     -0.275484    47A     -0.265476  

	Virtual:                                                              

	  48A     -0.060088    49A     -0.019507    50A     -0.008635  
	  51A      0.043302    52A      0.063988    53A      0.084909  
	  54A      0.110326    55A      0.131617    56A      0.138952  
	  57A      0.151181    58A      0.159821    59A      0.167504  
	  60A      0.175181    61A      0.185845    62A      0.217920  
	  63A      0.234259    64A      0.242923    65A      0.261470  
	  66A      0.284563    67A      0.316961    68A      0.320042  
	  69A      0.346467    70A      0.362284    71A      0.393622  
	  72A      0.491414    73A      0.498537    74A      0.508379  
	  75A      0.531998    76A      0.539316    77A      0.550276  
	  78A      0.564744    79A      0.577318    80A      0.582761  
	  81A      0.588890    82A      0.600683    83A      0.612179  
	  84A      0.621293    85A      0.628736    86A      0.633278  
	  87A      0.644665    88A      0.650297    89A      0.662469  
	  90A      0.681857    91A      0.690288    92A      0.732963  
	  93A      0.757553    94A      0.782396    95A      0.802339  
	  96A      0.813994    97A      0.822812    98A      0.848699  
	  99A      0.853807   100A      0.877711   101A      0.887733  
	 102A      0.902470   103A      0.924440   104A      0.931171  
	 105A      0.947322   106A      0.951628   107A      0.962010  
	 108A      0.978567   109A      0.978583   110A      0.995756  
	 111A      1.022125   112A      1.035006   113A      1.050244  
	 114A      1.082196   115A      1.109767   116A      1.121180  
	 117A      1.130513   118A      1.174274   119A      1.202651  
	 120A      1.209786   121A      1.247875   122A      1.288400  
	 123A      1.327837   124A      1.411598   125A      1.440002  
	 126A      1.461501   127A      1.486261   128A      1.572466  
	 129A      1.778083   130A      1.817972   131A      1.911395  
	 132A      2.083670   133A      2.116695  

	Final Occupation by Irrep:
	          A 
	DOCC [    47 ]

  Energy converged.

  @RKS Final Energy:  -648.48659559977239

   => Energetics <=

    Nuclear Repulsion Energy =            782.6611620093942747
    One-Electron Energy =               -2436.3596881621078865
    Two-Electron Energy =                1074.9332635397936428
    DFT Exchange-Correlation Energy =     -69.7213329868525449
    Empirical Dispersion Energy =           0.0000000000000000
    Total Energy =                       -648.4865955997724996



Properties will be evaluated at   0.000000,   0.000000,   0.000000 Bohr
  ==> Properties <==


Properties computed using the SCF density density matrix
  Nuclear Dipole Moment: (a.u.)
     X:    -2.5164      Y:     3.9878      Z:    -1.6572

  Electronic Dipole Moment: (a.u.)
     X:     2.3520      Y:    -3.5102      Z:     0.8535

  Dipole Moment: (a.u.)
     X:    -0.1644      Y:     0.4776      Z:    -0.8037     Total:     0.9492

  Dipole Moment: (Debye)
     X:    -0.4178      Y:     1.2139      Z:    -2.0428     Total:     2.4127


  Saving occupied orbitals to File 180.

*** tstop() called on hartree at Mon Dec 23 18:40:45 2013
Module time:
	user time   =     994.94 seconds =      16.58 minutes
	system time =      10.40 seconds =       0.17 minutes
	total time  =       1023 seconds =      17.05 minutes
Total time:
	user time   =     994.94 seconds =      16.58 minutes
	system time =      10.40 seconds =       0.17 minutes
	total time  =       1023 seconds =      17.05 minutes

*** tstart() called on hartree
*** at Mon Dec 23 18:40:45 2013


         ------------------------------------------------------------
                                   SCF GRAD                          
                          Rob Parrish, Justin Turney,                
                       Andy Simmonett, and Alex Sokolov              
         ------------------------------------------------------------

  ==> Geometry <==

    Molecular point group: c1
    Full point group: C1

    Geometry (in Angstrom), charge = 0, multiplicity = 1:

       Center              X                  Y                   Z       
    ------------   -----------------  -----------------  -----------------
           C          2.243519388986    -0.436010072222     0.209929128352
           C          0.876029388986     1.757959927778    -0.835500871648
           C          2.927839388986     0.752689927778    -0.062010871648
           C          2.244469388986     1.847239927778    -0.587500871648
           C         -3.406830611014     0.761509927778    -0.141450871648
           C          0.864509388986    -0.545650072222    -0.036370871648
           C          0.189869388986     0.571759927778    -0.546210871648
           O          0.820059388986    -2.815840072222     0.746259128352
           O         -1.577390611014     1.161939927778     1.378369128352
           O         -1.061810611014    -1.954690072222    -0.057590871648
           C          0.239909388986    -1.859390072222     0.262239128352
           C         -1.964860611014     0.857829927778     0.257789128352
           O         -1.174540611014     0.557739927778    -0.845590871648
           H         -1.289390611014    -2.871690072222     0.204979128352
           H          2.796609388986    -1.282310072222     0.615499128352
           H          0.344209388986     2.612079927778    -1.245570871648
           H          3.994899388986     0.820679927778     0.136299128352
           H          2.777569388986     2.770229927778    -0.801390871648
           H         -3.629270611014    -0.250090072222    -0.490210871648
           H         -4.037670611014     0.975329927778     0.727059128352
           H         -3.625830611014     1.495179927778    -0.920660871648

  Nuclear repulsion =  782.661162009394275

  ==> Basis Set <==

  Basis Set: 6-31G
    Number of shells: 81
    Number of basis function: 133
    Number of Cartesian functions: 133
    Spherical Harmonics?: false
    Max angular momentum: 1

  ==> DirectJKGrad: Integral-Direct SCF Gradients <==

    Gradient:                    1
    J tasked:                  Yes
    K tasked:                  Yes
    wK tasked:                  No
    Integrals threads:           1
    Schwarz Cutoff:          0E+00

  ==> DFT Potential <==

   => B3LYP Composite Functional <= 

    B3LYP Hybrid-GGA Exchange-Correlation Functional

    P.J. Stephens et. al., J. Phys. Chem., 98, 11623-11627, 1994

    Points   =           5000
    Deriv    =              1
    GGA      =           TRUE
    Meta     =          FALSE

    X_LRC        =          FALSE
    X_Hybrid     =           TRUE
    X_Alpha      =   2.000000E-01
    X_Omega      =   0.000000E+00
    C_LRC        =          FALSE
    C_Hybrid     =          FALSE
    C_SCS_Hybrid =          FALSE
    C_Alpha      =   0.000000E+00
    C_SS_Alpha   =   0.000000E+00
    C_OS_Alpha   =   0.000000E+00

   => Exchange Functionals <=

    0.8000  B3_X
    0.2000    HF 

   => Correlation Functionals <=

    0.1900 VWN3RPA_C
    0.8100 LYP_C
    0.0000 DF-MP2 

   => Molecular Quadrature <=

    Radial Scheme    =       TREUTLER
    Pruning Scheme   =           FLAT
    Nuclear Scheme   =       TREUTLER

    BS radius alpha  =              1
    Pruning alpha    =              1
    Radial Points    =             75
    Spherical Points =            302
    Total Points     =         460977
    Total Blocks     =            732
    Max Points       =           1000
    Max Functions    =            124


  -Total Gradient:
     Atom            X                  Y                   Z
    ------   -----------------  -----------------  -----------------
       1       -0.009323111407    -0.004330036002    -0.000200210334
       2        0.000451979550     0.000331239290    -0.000944640436
       3       -0.003957153926     0.006357652100    -0.003355996187
       4       -0.001176143034    -0.004137040203     0.001663471651
       5        0.005155265635    -0.001444982242    -0.007809125796
       6       -0.001964087994     0.007972207193    -0.002909618597
       7       -0.022945700194    -0.008763819839     0.013491954412
       8       -0.021464573123     0.025630950146    -0.014283419821
       9       -0.014233568753     0.000757792727     0.000522781593
      10        0.023867215336     0.007238647310     0.002269510124
      11       -0.013237265687    -0.037217488130     0.009085824325
      12        0.039813956126     0.001148770736     0.000582727514
      13       -0.004050688314    -0.003332245824    -0.011135321774
      14        0.012760891296     0.003697089351     0.002243476327
      15        0.006224135509    -0.000554951918     0.001599987089
      16        0.002050597157     0.003598677216    -0.000956733406
      17        0.002015829913     0.000732152654     0.000199987615
      18        0.001347890382     0.001034383784     0.000077021998
      19       -0.000513660900    -0.001131754821     0.004606534638
      20       -0.002075505534    -0.000345469829     0.001219975898
      21        0.001210201204     0.002710566581     0.004032339094


*** tstop() called on hartree at Mon Dec 23 18:45:08 2013
Module time:
	user time   =     260.27 seconds =       4.34 minutes
	system time =       0.14 seconds =       0.00 minutes
	total time  =        263 seconds =       4.38 minutes
Total time:
	user time   =    1255.21 seconds =      20.92 minutes
	system time =      10.54 seconds =       0.18 minutes
	total time  =       1286 seconds =      21.43 minutes

			-----------------------------------------
			 OPTKING 2.0: for geometry optimizations 
			  - R.A. King,  Bethel University        
			-----------------------------------------

	Internal coordinates to be generated automatically.
	Detected frag with atoms:  1 2 3 4 5 6 7 8 9 10 11 12 13 14 15 16 17 18 19 20 21
	---Fragment 1 Bond Connectivity---
	 1 : 3 6 15
	 2 : 4 7 16
	 3 : 1 4 17
	 4 : 2 3 18
	 5 : 12 19 20 21
	 6 : 1 7 11
	 7 : 2 6 13
	 8 : 11
	 9 : 12
	 10 : 11 14
	 11 : 6 8 10
	 12 : 5 9 13
	 13 : 7 12
	 14 : 10
	 15 : 1
	 16 : 2
	 17 : 3
	 18 : 4
	 19 : 5
	 20 : 5
	 21 : 5

	---Fragment 1 Geometry and Gradient---
	 C           4.2396372190       -0.8239396277        0.3967085599
	 C           1.6554556295        3.3220628161       -1.5788678312
	 C           5.5328146063        1.4223778265       -0.1171835647
	 C           4.2414324588        3.4907775652       -1.1102157502
	 C          -6.4379768359        1.4390452110       -0.2673034087
	 C           1.6336859845       -1.0311292009       -0.0687309866
	 C           0.3588011462        1.0804696773       -1.0321889582
	 O           1.5496876579       -5.3211665705        1.4102253768
	 O          -2.9808362594        2.1957482464        2.6047401626
	 O          -2.0065312598       -3.6938289112       -0.1088309752
	 C           0.4533630419       -3.5137380107        0.4955601339
	 C          -3.7130484441        1.6210636321        0.4871508526
	 O          -2.2195600868        1.0539757169       -1.5979351679
	 H          -2.4365951331       -5.4267077750        0.3873544155
	 H           5.2848258458       -2.4232148539        1.1631247876
	 H           0.6504614776        4.9361157007       -2.3537878265
	 H           7.5492657736        1.5508603063        0.2575680247
	 H           5.2488454603        5.2349758886       -1.5144092728
	 H          -6.8583275169       -0.4726017451       -0.9263642948
	 H          -7.6300916696        1.8431064527        1.3739426350
	 H          -6.8518268591        2.8254805829       -1.7397969087
	            -0.0093231114       -0.0043300360       -0.0002002103
	             0.0004519796        0.0003312393       -0.0009446404
	            -0.0039571539        0.0063576521       -0.0033559962
	            -0.0011761430       -0.0041370402        0.0016634717
	             0.0051552656       -0.0014449822       -0.0078091258
	            -0.0019640880        0.0079722072       -0.0029096186
	            -0.0229457002       -0.0087638198        0.0134919544
	            -0.0214645731        0.0256309501       -0.0142834198
	            -0.0142335688        0.0007577927        0.0005227816
	             0.0238672153        0.0072386473        0.0022695101
	            -0.0132372657       -0.0372174881        0.0090858243
	             0.0398139561        0.0011487707        0.0005827275
	            -0.0040506883       -0.0033322458       -0.0111353218
	             0.0127608913        0.0036970894        0.0022434763
	             0.0062241355       -0.0005549519        0.0015999871
	             0.0020505972        0.0035986772       -0.0009567334
	             0.0020158299        0.0007321527        0.0001999876
	             0.0013478904        0.0010343838        0.0000770220
	            -0.0005136609       -0.0011317548        0.0046065346
	            -0.0020755055       -0.0003454698        0.0012199759
	             0.0012102012        0.0027105666        0.0040323391

	Previous optimization step data not found.  Starting new optimization.

	---Fragment 1 Intrafragment Coordinates---
	 - Coordinate -           - BOHR/RAD -       - ANG/DEG -
	 R(1,3)           =         2.642411	       1.398304
	 R(1,6)           =         2.655286	       1.405117
	 R(1,15)          =         2.058518	       1.089321
	 R(2,4)           =         2.633510	       1.393594
	 R(2,7)           =         2.646679	       1.400562
	 R(2,16)          =         2.053212	       1.086513
	 R(3,4)           =         2.632880	       1.393260
	 R(3,17)          =         2.054999	       1.087459
	 R(4,18)          =         2.054381	       1.087132
	 R(5,12)          =         2.833296	       1.499316
	 R(5,19)          =         2.065297	       1.092908
	 R(5,20)          =         2.068355	       1.094526
	 R(5,21)          =         2.064391	       1.092429
	 R(6,7)           =         2.648100	       1.401314
	 R(6,11)          =         2.806231	       1.484994
	 R(7,13)          =         2.639833	       1.396939
	 R(8,11)          =         2.303332	       1.218871
	 R(9,12)          =         2.313132	       1.224057
	 R(10,11)         =         2.539449	       1.343819
	 R(10,14)         =         1.853112	       0.980625
	 R(12,13)         =         2.626724	       1.390003
	 B(1,3,4)         =         2.095729	     120.076411
	 B(1,3,17)        =         2.091969	     119.861002
	 B(1,6,7)         =         2.064674	     118.297081
	 B(1,6,11)        =         2.033731	     116.524206
	 B(2,4,3)         =         2.092571	     119.895507
	 B(2,4,18)        =         2.095436	     120.059644
	 B(2,7,6)         =         2.111387	     120.973589
	 B(2,7,13)        =         2.029452	     116.279011
	 B(3,1,6)         =         2.108940	     120.833374
	 B(3,1,15)        =         2.076442	     118.971384
	 B(3,4,18)        =         2.095175	     120.044678
	 B(4,2,7)         =         2.092752	     119.905865
	 B(4,2,16)        =         2.091444	     119.830892
	 B(4,3,17)        =         2.095487	     120.062539
	 B(5,12,9)        =         2.170224	     124.344697
	 B(5,12,13)       =         1.898199	     108.758793
	 B(6,1,15)        =         2.097800	     120.195084
	 B(6,7,13)        =         2.141463	     122.696784
	 B(6,11,8)        =         2.182010	     125.019944
	 B(6,11,10)       =         2.006791	     114.980626
	 B(7,2,16)        =         2.098960	     120.261552
	 B(7,6,11)        =         2.184756	     125.177326
	 B(7,13,12)       =         1.963890	     112.522616
	 B(8,11,10)       =         2.094308	     119.995020
	 B(9,12,13)       =         2.214735	     126.894958
	 B(11,10,14)      =         1.800199	     103.143790
	 B(12,5,19)       =         1.917907	     109.888003
	 B(12,5,20)       =         1.907597	     109.297255
	 B(12,5,21)       =         1.917279	     109.852012
	 B(19,5,20)       =         1.893077	     108.465294
	 B(19,5,21)       =         1.931799	     110.683932
	 B(20,5,21)       =         1.895734	     108.617559
	 D(1,3,4,2)       =         0.005679	       0.325382
	 D(1,3,4,18)      =        -3.138539	    -179.825067
	 D(1,6,7,2)       =         0.027616	       1.582259
	 D(1,6,7,13)      =         3.122352	     178.897573
	 D(1,6,11,8)      =         0.051550	       2.953598
	 D(1,6,11,10)     =        -3.076642	    -176.278604
	 D(2,4,3,17)      =        -3.137308	    -179.754490
	 D(2,7,6,11)      =        -3.106220	    -177.973286
	 D(2,7,13,12)     =        -1.679764	     -96.243407
	 D(3,1,6,7)       =        -0.013219	      -0.757408
	 D(3,1,6,11)      =         3.121287	     178.836572
	 D(3,4,2,7)       =         0.008533	       0.488925
	 D(3,4,2,16)      =        -3.141294	    -179.982896
	 D(4,2,7,6)       =        -0.025598	      -1.466631
	 D(4,2,7,13)      =        -3.123215	    -178.947054
	 D(4,3,1,6)       =        -0.003231	      -0.185136
	 D(4,3,1,15)      =         3.135848	     179.670848
	 D(5,12,13,7)     =        -3.099502	    -177.588406
	 D(6,1,3,17)      =         3.139753	     179.894574
	 D(6,7,2,16)      =         3.124266	     179.007246
	 D(6,7,13,12)     =         1.506633	      86.323697
	 D(6,11,10,14)    =         3.139200	     179.862928
	 D(7,2,4,18)      =        -3.130433	    -179.360604
	 D(7,6,1,15)      =         3.130918	     179.388365
	 D(7,6,11,8)      =        -3.097676	    -177.483781
	 D(7,6,11,10)     =         0.057317	       3.284017
	 D(7,13,12,9)     =         0.049777	       2.851994
	 D(8,11,10,14)    =         0.010279	       0.588954
	 D(9,12,5,19)     =        -2.103932	    -120.546396
	 D(9,12,5,20)     =        -0.028447	      -1.629883
	 D(9,12,5,21)     =         2.049906	     117.450960
	 D(11,6,1,15)     =        -0.017761	      -1.017655
	 D(11,6,7,13)     =        -0.011484	      -0.657972
	 D(13,7,2,16)     =         0.026648	       1.526823
	 D(13,12,5,19)    =         1.045106	      59.880179
	 D(13,12,5,20)    =         3.120591	     178.796691
	 D(13,12,5,21)    =        -1.084242	     -62.122466
	 D(15,1,3,17)     =        -0.004354	      -0.249442
	 D(16,2,4,18)     =         0.002925	       0.167575
	 D(17,3,4,18)     =         0.001659	       0.095061

	Current energy   :      -648.4865955998

	Generating empirical Hessian (Schlegel '84) for each fragment.
	Going to follow RFO solution 1.
	Projected energy change by RFO approximation:        -0.0095084189

	Back-transformation to cartesian coordinates...
	Successfully converged to displaced geometry.

	---Internal Coordinate Step in ANG or DEG, aJ/ANG or AJ/DEG ---
	 ----------------------------------------------------------------------
	 Coordinate             Previous        Force       Change         New 
	 ----------             --------       ------       ------       ------
	 R(1,3)          =      1.398304    -0.030120    -0.004065     1.394239
	 R(1,6)          =      1.405117     0.011554     0.001516     1.406633
	 R(1,15)         =      1.089321    -0.034483    -0.006020     1.083301
	 R(2,4)          =      1.393594     0.028447     0.003831     1.397425
	 R(2,7)          =      1.400562    -0.033851    -0.004566     1.395996
	 R(2,16)         =      1.086513    -0.018027    -0.003119     1.083394
	 R(3,4)          =      1.393260     0.047605     0.006338     1.399598
	 R(3,17)         =      1.087459    -0.016990    -0.002949     1.084510
	 R(4,18)         =      1.087132    -0.012586    -0.002182     1.084950
	 R(5,12)         =      1.499316     0.034387     0.006430     1.505746
	 R(5,19)         =      1.092908     0.002636     0.000465     1.093373
	 R(5,20)         =      1.094526    -0.017283    -0.003067     1.091459
	 R(5,21)         =      1.092429     0.010708     0.001888     1.094317
	 R(6,7)          =      1.401314     0.051358     0.006919     1.408233
	 R(6,11)         =      1.484994     0.003184     0.000570     1.485563
	 R(7,13)         =      1.396939     0.189541     0.025346     1.422285
	 R(8,11)         =      1.218871     0.296616     0.019483     1.238354
	 R(9,12)         =      1.224057     0.031605     0.002125     1.226183
	 R(10,11)        =      1.343819     0.307591     0.033912     1.377730
	 R(10,14)        =      0.980625     0.047960     0.005794     0.986419
	 R(12,13)        =      1.390003     0.113825     0.014854     1.404856
	 B(1,3,4)        =    120.076411    -0.000140    -0.435511   119.640900
	 B(1,3,17)       =    119.861002     0.000020     0.010185   119.871187
	 B(1,6,7)        =    118.297081    -0.000020    -0.084728   118.212354
	 B(1,6,11)       =    116.524206    -0.000284    -0.779910   115.744297
	 B(2,4,3)        =    119.895507    -0.000002     0.017292   119.912798
	 B(2,4,18)       =    120.059644    -0.000057    -0.251679   119.807965
	 B(2,7,6)        =    120.973589    -0.000094    -0.284057   120.689532
	 B(2,7,13)       =    116.279011     0.000201     0.557282   116.836293
	 B(3,1,6)        =    120.833374     0.000166     0.498329   121.331703
	 B(3,1,15)       =    118.971384     0.000302     1.368116   120.339501
	 B(3,4,18)       =    120.044678     0.000059     0.234542   120.279220
	 B(4,2,7)        =    119.905865     0.000091     0.303858   120.209722
	 B(4,2,16)       =    119.830892     0.000240     1.047838   120.878730
	 B(4,3,17)       =    120.062539     0.000119     0.425360   120.487899
	 B(5,12,9)       =    124.344697     0.000884     2.473508   126.818205
	 B(5,12,13)      =    108.758793     0.000649     1.816496   110.575289
	 B(6,1,15)       =    120.195084    -0.000467    -1.866638   118.328447
	 B(6,7,13)       =    122.696784    -0.000109    -0.311679   122.385104
	 B(6,11,8)       =    125.019944    -0.000617    -1.729745   123.290199
	 B(6,11,10)      =    114.980626     0.000349     0.972599   115.953225
	 B(7,2,16)       =    120.261552    -0.000331    -1.350748   118.910804
	 B(7,6,11)       =    125.177326     0.000304     0.864781   126.042107
	 B(7,13,12)      =    112.522616     0.003032     8.487769   121.010385
	 B(8,11,10)      =    119.995020     0.000269     0.750389   120.745409
	 B(9,12,13)      =    126.894958    -0.001532    -4.288452   122.606506
	 B(11,10,14)     =    103.143790     0.001714     7.208740   110.352530
	 B(12,5,19)      =    109.888003    -0.000007    -0.235976   109.652027
	 B(12,5,20)      =    109.297255    -0.000056     0.165169   109.462424
	 B(12,5,21)      =    109.852012     0.000183     0.557354   110.409365
	 B(19,5,20)      =    108.465294     0.000159     1.076755   109.542049
	 B(19,5,21)      =    110.683932    -0.000339    -2.208245   108.475688
	 B(20,5,21)      =    108.617559     0.000063     0.662783   109.280342
	 D(1,3,4,2)      =      0.325382    -0.000002    -0.155384     0.169997
	 D(1,3,4,18)     =   -179.825067     0.000001     0.042932  -179.782135
	 D(1,6,7,2)      =      1.582259    -0.000012    -0.957943     0.624316
	 D(1,6,7,13)     =    178.897573    -0.000020    -1.814500   177.083073
	 D(1,6,11,8)     =      2.953598    -0.000012    -1.476510     1.477088
	 D(1,6,11,10)    =   -176.278604    -0.000029    -3.453925  -179.732528
	 D(2,4,3,17)     =   -179.754490    -0.000000    -0.032707  -179.787198
	 D(2,7,6,11)     =   -177.973286    -0.000020    -1.826716  -179.800003
	 D(2,7,13,12)    =    -96.243407    -0.000044    -5.651753  -101.895159
	 D(3,1,6,7)      =     -0.757408     0.000006     0.494525    -0.262883
	 D(3,1,6,11)     =    178.836572     0.000015     1.281450   180.118022
	 D(3,4,2,7)      =      0.488925    -0.000003    -0.299351     0.189574
	 D(3,4,2,16)     =   -179.982896     0.000006     0.489610  -179.493287
	 D(4,2,7,6)      =     -1.466631     0.000011     0.871432    -0.595199
	 D(4,2,7,13)     =   -178.947054     0.000020     1.703043  -177.244011
	 D(4,3,1,6)      =     -0.185136     0.000001     0.055069    -0.130067
	 D(4,3,1,15)     =    179.670848     0.000005     0.417917   180.088764
	 D(5,12,13,7)    =   -177.588406    -0.000004    -0.644784  -178.233190
	 D(6,1,3,17)     =    179.894574    -0.000001    -0.067179   179.827395
	 D(6,7,2,16)     =    179.007246     0.000001     0.086617   179.093864
	 D(6,7,13,12)    =     86.323697    -0.000034    -4.806172    81.517525
	 D(6,11,10,14)   =    179.862928     0.000006     0.830520   180.693448
	 D(7,2,4,18)     =   -179.360604    -0.000006    -0.497463  -179.858067
	 D(7,6,1,15)     =    179.388365     0.000002     0.134195   179.522560
	 D(7,6,11,8)     =   -177.483781    -0.000003    -0.624017  -178.107798
	 D(7,6,11,10)    =      3.284017    -0.000020    -2.601432     0.682585
	 D(7,13,12,9)    =      2.851994    -0.000009    -1.091545     1.760450
	 D(8,11,10,14)   =      0.588954    -0.000008    -1.071978    -0.483024
	 D(9,12,5,19)    =   -120.546396    -0.000033    -0.845725  -121.392120
	 D(9,12,5,20)    =     -1.629883     0.000003     0.430311    -1.199572
	 D(9,12,5,21)    =    117.450960     0.000038     1.690390   119.141350
	 D(11,6,1,15)    =     -1.017655     0.000010     0.921120    -0.096535
	 D(11,6,7,13)    =     -0.657972    -0.000029    -2.683274    -3.341246
	 D(13,7,2,16)    =      1.526823     0.000010     0.918228     2.445051
	 D(13,12,5,19)   =     59.880179    -0.000035    -1.278992    58.601187
	 D(13,12,5,20)   =    178.796691     0.000001    -0.002956   178.793735
	 D(13,12,5,21)   =    -62.122466     0.000036     1.257123   -60.865343
	 D(15,1,3,17)    =     -0.249442     0.000003     0.295669     0.046226
	 D(16,2,4,18)    =      0.167575     0.000003     0.291498     0.459073
	 D(17,3,4,18)    =      0.095061     0.000002     0.165609     0.260670
	 ----------------------------------------------------------------------

  ==> Convergence Check <==

  Measures of convergence in internal coordinates in au.
  Criteria marked as inactive (o), active & met (*), and active & unmet ( ).
  --------------------------------------------------------------------------------------------- ~
   Step     Total Energy     Delta E     MAX Force     RMS Force      MAX Disp      RMS Disp    ~
  --------------------------------------------------------------------------------------------- ~
    Convergence Criteria    1.00e-06 *    3.00e-04 *             o    1.20e-03 *             o  ~
  --------------------------------------------------------------------------------------------- ~
      1    -648.48659560   -6.48e+02      3.99e-02      8.45e-03 o    1.48e-01      3.21e-02 o  ~
  ---------------------------------------------------------------------------------------------

	Writing optimization data to binary file.
	Structure for next step:
	Cartesian Geometry (in Angstrom)
	    C     2.3041293797  -0.4465772005   0.1360243030
	    C     0.9368447414   1.8038000417  -0.7740169549
	    C     3.0099313545   0.7224507727  -0.1452566503
	    C     2.3230557539   1.8522815881  -0.6041230698
	    C    -3.4995829128   0.7375516323  -0.2214857081
	    C     0.9089694644  -0.5163345750  -0.0291361608
	    C     0.2341117760   0.6330319690  -0.4837185291
	    O     0.9233651980  -2.7903421657   0.7380649857
	    O    -1.7487713700   0.9737775152   1.4704263976
	    O    -1.0821448076  -1.8954827578   0.1437296441
	    C     0.2835382557  -1.8206090136   0.3093934940
	    C    -2.0904876937   0.8046486196   0.3050299382
	    O    -1.1649389437   0.6437575284  -0.7395250661
	    H    -1.4105160273  -2.7892042707   0.4015209249
	    H     2.8241683060  -1.3272439308   0.4931327827
	    H     0.3905208967   2.6664826301  -1.1360275723
	    H     4.0851915019   0.7507793787  -0.0067812400
	    H     2.8623996820   2.7662931225  -0.8295262072
	    H    -3.6611204535  -0.2229119905  -0.7183563742
	    H    -4.2026565190   0.8429839576   0.6066781250
	    H    -3.6741105243   1.5373660081  -0.9476855219
			--------------------------
			 OPTKING Finished Execution 
			--------------------------

    Structure for next step:
    Molecular point group: c1
    Full point group: C1

    Geometry (in Angstrom), charge = 0, multiplicity = 1:

    C            2.298719458640    -0.448929355402     0.105177677857
    C            0.931434924794     1.801447714957    -0.804863510604
    C            3.004521379569     0.720098528544    -0.176103254017
    C            2.317645831466     1.849929257624    -0.634969638462
    C           -3.504992390579     0.735199386902    -0.252332306003
    C            0.903559649955    -0.518686724601    -0.059982773395
    C            0.228702013066     0.630679731595    -0.514565106967
    O            0.917955382386    -2.792694141643     0.707218314545
    O           -1.754180981526     0.971425251764     1.439579670500
    O           -1.087554470063    -1.897834802080     0.112883018340
    C            0.278128488942    -1.822961063603     0.278546855623
    C           -2.095897279098     0.802296369080     0.274183300158
    O           -1.170348599833     0.641405290221    -0.770371624408
    H           -1.415925664687    -2.791556246736     0.370674279423
    H            2.818758345230    -1.329596018454     0.462286130269
    H            0.385111121773     2.664130237474    -1.166874100329
    H            4.079781444869     0.748427132365    -0.037627854253
    H            2.856989718390     2.763940722242    -0.860372758662
    H           -3.666529918984    -0.225264162521    -0.749202934146
    H           -4.208065943080     0.840631704146     0.575831463938
    H           -3.679519988747     1.535013701687    -0.978532064346


*** tstart() called on hartree
*** at Mon Dec 23 18:45:08 2013

	There are an even number of electrons - assuming singlet.
	Specify the multiplicity with the MULTP option in the
	input if this is incorrect


         ---------------------------------------------------------
                                   SCF
            by Justin Turney, Rob Parrish, and Andy Simmonett
                              RKS Reference
                        1 Threads,    256 MiB Core
         ---------------------------------------------------------

  ==> Geometry <==

    Molecular point group: c1
    Full point group: C1

    Geometry (in Angstrom), charge = 0, multiplicity = 1:

       Center              X                  Y                   Z       
    ------------   -----------------  -----------------  -----------------
           C          2.298719458640    -0.448929355402     0.105177677857
           C          0.931434924794     1.801447714957    -0.804863510604
           C          3.004521379569     0.720098528544    -0.176103254017
           C          2.317645831466     1.849929257624    -0.634969638462
           C         -3.504992390579     0.735199386902    -0.252332306003
           C          0.903559649955    -0.518686724601    -0.059982773395
           C          0.228702013066     0.630679731595    -0.514565106967
           O          0.917955382386    -2.792694141643     0.707218314545
           O         -1.754180981526     0.971425251764     1.439579670500
           O         -1.087554470063    -1.897834802080     0.112883018340
           C          0.278128488942    -1.822961063603     0.278546855623
           C         -2.095897279098     0.802296369080     0.274183300158
           O         -1.170348599833     0.641405290221    -0.770371624408
           H         -1.415925664687    -2.791556246736     0.370674279423
           H          2.818758345230    -1.329596018454     0.462286130269
           H          0.385111121773     2.664130237474    -1.166874100329
           H          4.079781444869     0.748427132365    -0.037627854253
           H          2.856989718390     2.763940722242    -0.860372758662
           H         -3.666529918984    -0.225264162521    -0.749202934146
           H         -4.208065943080     0.840631704146     0.575831463938
           H         -3.679519988747     1.535013701687    -0.978532064346

  Running in c1 symmetry.

  Nuclear repulsion =  774.728852487969789

  Charge       = 0
  Multiplicity = 1
  Electrons    = 94
  Nalpha       = 47
  Nbeta        = 47

  ==> Algorithm <==

  SCF Algorithm Type is OUT_OF_CORE.
  DIIS enabled.
  MOM disabled.
  Fractional occupation disabled.
  Guess Type is READ.
  Energy threshold   = 1.00e-08
  Density threshold  = 1.00e-08
  Integral threshold = 0.00e+00

  ==> Primary Basis <==

  Basis Set: 6-31G
    Number of shells: 81
    Number of basis function: 133
    Number of Cartesian functions: 133
    Spherical Harmonics?: false
    Max angular momentum: 1

  ==> DFT Potential <==

   => B3LYP Composite Functional <= 

    B3LYP Hybrid-GGA Exchange-Correlation Functional

    P.J. Stephens et. al., J. Phys. Chem., 98, 11623-11627, 1994

    Points   =           5000
    Deriv    =              1
    GGA      =           TRUE
    Meta     =          FALSE

    X_LRC        =          FALSE
    X_Hybrid     =           TRUE
    X_Alpha      =   2.000000E-01
    X_Omega      =   0.000000E+00
    C_LRC        =          FALSE
    C_Hybrid     =          FALSE
    C_SCS_Hybrid =          FALSE
    C_Alpha      =   0.000000E+00
    C_SS_Alpha   =   0.000000E+00
    C_OS_Alpha   =   0.000000E+00

   => Exchange Functionals <=

    0.8000  B3_X
    0.2000    HF 

   => Correlation Functionals <=

    0.1900 VWN3RPA_C
    0.8100 LYP_C
    0.0000 DF-MP2 

   => Molecular Quadrature <=

    Radial Scheme    =       TREUTLER
    Pruning Scheme   =           FLAT
    Nuclear Scheme   =       TREUTLER

    BS radius alpha  =              1
    Pruning alpha    =              1
    Radial Points    =             75
    Spherical Points =            302
    Total Points     =         461308
    Total Blocks     =            731
    Max Points       =           1000
    Max Functions    =            124

  ==> Pre-Iterations <==

   -------------------------------------------------------
    Irrep   Nso     Nmo     Nalpha   Nbeta   Ndocc  Nsocc
   -------------------------------------------------------
     A        133     133       0       0       0       0
   -------------------------------------------------------
    Total     133     133      47      47      47       0
   -------------------------------------------------------

 OEINTS: Wrapper to libmints.
   by Justin Turney

   Calculation information:
      Number of atoms:                  21
      Number of AO shells:              81
      Number of SO shells:              81
      Number of primitives:            214
      Number of atomic orbitals:       133
      Number of basis functions:       133

      Number of irreps:                  1
      Number of functions per irrep: [ 133 ]

      Overlap, kinetic, potential, dipole, and quadrupole integrals
        stored in file 35.

  ==> Integral Setup <==

 MINTS: Wrapper to libmints.
   by Justin Turney

   Calculation information:
      Number of atoms:                  21
      Number of AO shells:              81
      Number of SO shells:              81
      Number of primitives:            214
      Number of atomic orbitals:       133
      Number of basis functions:       133

      Number of irreps:                  1
      Integral cutoff                 0.00e+00
      Number of functions per irrep: [ 133 ]

      Overlap, kinetic, potential, dipole, and quadrupole integrals
        stored in file 35.

      Computing two-electron integrals...done
      Computed 39700498 non-zero two-electron integrals.
        Stored in file 33.

  ==> DiskJK: Disk-Based J/K Matrices <==

    J tasked:                  Yes
    K tasked:                  Yes
    wK tasked:                  No
    Memory (MB):               183
    Schwarz Cutoff:          1E-12

  Minimum eigenvalue in the overlap matrix is 5.4970651776E-04.
  Using Symmetric Orthogonalization.
  SCF Guess: Projection.

  Using orbitals from previous SCF, no projection.
  ==> Iterations <==

                        Total Energy        Delta E     RMS |[F,P]|

   @RKS iter   0:  -648.41174029242916   -6.48412e+02   3.07954e-03 
   @RKS iter   1:  -648.49346303569018   -8.17227e-02   3.47700e-04 
   @RKS iter   2:  -648.49229456358603    1.16847e-03   5.86005e-04 DIIS
   @RKS iter   3:  -648.49476800324737   -2.47344e-03   1.00392e-04 DIIS
   @RKS iter   4:  -648.49480367378180   -3.56705e-05   7.36411e-05 DIIS
   @RKS iter   5:  -648.49484072088728   -3.70471e-05   1.88681e-05 DIIS
   @RKS iter   6:  -648.49484345454709   -2.73366e-06   5.00241e-06 DIIS
   @RKS iter   7:  -648.49484364265174   -1.88105e-07   2.49233e-06 DIIS
   @RKS iter   8:  -648.49484368975868   -4.71069e-08   8.35278e-07 DIIS
   @RKS iter   9:  -648.49484369492109   -5.16241e-09   2.57619e-07 DIIS
   @RKS iter  10:  -648.49484369536503   -4.43947e-10   1.19795e-07 DIIS
   @RKS iter  11:  -648.49484369548702   -1.21986e-10   2.52073e-08 DIIS
   @RKS iter  12:  -648.49484369551840   -3.13776e-11   9.04955e-09 DIIS

  ==> Post-Iterations <==

	Orbital Energies (a.u.)
	-----------------------

	Doubly Occupied:                                                      

	   1A    -19.200442     2A    -19.198202     3A    -19.150189  
	   4A    -19.149374     5A    -10.341053     6A    -10.336931  
	   7A    -10.276137     8A    -10.226131     9A    -10.213693  
	  10A    -10.209569    11A    -10.208821    12A    -10.205589  
	  13A    -10.199765    14A     -1.120634    15A     -1.111293  
	  16A     -1.036641    17A     -1.029428    18A     -0.882354  
	  19A     -0.791110    20A     -0.783967    21A     -0.750939  
	  22A     -0.682240    23A     -0.647624    24A     -0.613086  
	  25A     -0.591336    26A     -0.532866    27A     -0.508043  
	  28A     -0.497538    29A     -0.484959    30A     -0.471618  
	  31A     -0.469458    32A     -0.460036    33A     -0.453287  
	  34A     -0.450671    35A     -0.417172    36A     -0.407612  
	  37A     -0.402121    38A     -0.393143    39A     -0.383021  
	  40A     -0.368942    41A     -0.363266    42A     -0.323363  
	  43A     -0.310060    44A     -0.286941    45A     -0.283614  
	  46A     -0.273662    47A     -0.262142  

	Virtual:                                                              

	  48A     -0.062993    49A     -0.018940    50A     -0.007180  
	  51A      0.039462    52A      0.057185    53A      0.082369  
	  54A      0.108261    55A      0.125701    56A      0.139955  
	  57A      0.149976    58A      0.158795    59A      0.165770  
	  60A      0.172076    61A      0.183111    62A      0.214686  
	  63A      0.226766    64A      0.241476    65A      0.269764  
	  66A      0.281096    67A      0.310901    68A      0.317994  
	  69A      0.337723    70A      0.357116    71A      0.390413  
	  72A      0.492777    73A      0.497927    74A      0.509322  
	  75A      0.532978    76A      0.537729    77A      0.544280  
	  78A      0.563329    79A      0.572979    80A      0.580502  
	  81A      0.585950    82A      0.599544    83A      0.614791  
	  84A      0.619361    85A      0.628237    86A      0.633953  
	  87A      0.643079    88A      0.647192    89A      0.660327  
	  90A      0.675343    91A      0.685991    92A      0.714631  
	  93A      0.749608    94A      0.777557    95A      0.808326  
	  96A      0.817006    97A      0.828520    98A      0.854281  
	  99A      0.858736   100A      0.873721   101A      0.882622  
	 102A      0.903842   103A      0.921445   104A      0.931580  
	 105A      0.945916   106A      0.950052   107A      0.956554  
	 108A      0.977901   109A      0.982582   110A      0.996427  
	 111A      1.028595   112A      1.036943   113A      1.049044  
	 114A      1.089692   115A      1.113566   116A      1.117730  
	 117A      1.150148   118A      1.160826   119A      1.204042  
	 120A      1.209213   121A      1.259102   122A      1.288306  
	 123A      1.324507   124A      1.426100   125A      1.453288  
	 126A      1.480632   127A      1.489719   128A      1.559907  
	 129A      1.782176   130A      1.822917   131A      1.902133  
	 132A      2.050432   133A      2.105614  

	Final Occupation by Irrep:
	          A 
	DOCC [    47 ]

  Energy converged.

  @RKS Final Energy:  -648.49484369551840

   => Energetics <=

    Nuclear Repulsion Energy =            774.7288524879697889
    One-Electron Energy =               -2420.8656534172378088
    Two-Electron Energy =                1067.3057560415720673
    DFT Exchange-Correlation Energy =     -69.6637988078224879
    Empirical Dispersion Energy =           0.0000000000000000
    Total Energy =                       -648.4948436955183979



Properties will be evaluated at   0.000000,   0.000000,   0.000000 Bohr
  ==> Properties <==


Properties computed using the SCF density density matrix
  Nuclear Dipole Moment: (a.u.)
     X:    -2.6673      Y:     3.9280      Z:    -2.2276

  Electronic Dipole Moment: (a.u.)
     X:     2.3984      Y:    -3.3934      Z:     1.3593

  Dipole Moment: (a.u.)
     X:    -0.2689      Y:     0.5345      Z:    -0.8683     Total:     1.0545

  Dipole Moment: (Debye)
     X:    -0.6836      Y:     1.3587      Z:    -2.2070     Total:     2.6803


  Saving occupied orbitals to File 180.

*** tstop() called on hartree at Mon Dec 23 18:52:48 2013
Module time:
	user time   =     442.05 seconds =       7.37 minutes
	system time =       4.56 seconds =       0.08 minutes
	total time  =        460 seconds =       7.67 minutes
Total time:
	user time   =    1697.33 seconds =      28.29 minutes
	system time =      15.10 seconds =       0.25 minutes
	total time  =       1746 seconds =      29.10 minutes

*** tstart() called on hartree
*** at Mon Dec 23 18:52:48 2013


         ------------------------------------------------------------
                                   SCF GRAD                          
                          Rob Parrish, Justin Turney,                
                       Andy Simmonett, and Alex Sokolov              
         ------------------------------------------------------------

  ==> Geometry <==

    Molecular point group: c1
    Full point group: C1

    Geometry (in Angstrom), charge = 0, multiplicity = 1:

       Center              X                  Y                   Z       
    ------------   -----------------  -----------------  -----------------
           C          2.298719458640    -0.448929355402     0.105177677857
           C          0.931434924794     1.801447714957    -0.804863510604
           C          3.004521379569     0.720098528544    -0.176103254017
           C          2.317645831466     1.849929257624    -0.634969638462
           C         -3.504992390579     0.735199386902    -0.252332306003
           C          0.903559649955    -0.518686724601    -0.059982773395
           C          0.228702013066     0.630679731595    -0.514565106967
           O          0.917955382386    -2.792694141643     0.707218314545
           O         -1.754180981526     0.971425251764     1.439579670500
           O         -1.087554470063    -1.897834802080     0.112883018340
           C          0.278128488942    -1.822961063603     0.278546855623
           C         -2.095897279098     0.802296369080     0.274183300158
           O         -1.170348599833     0.641405290221    -0.770371624408
           H         -1.415925664687    -2.791556246736     0.370674279423
           H          2.818758345230    -1.329596018454     0.462286130269
           H          0.385111121773     2.664130237474    -1.166874100329
           H          4.079781444869     0.748427132365    -0.037627854253
           H          2.856989718390     2.763940722242    -0.860372758662
           H         -3.666529918984    -0.225264162521    -0.749202934146
           H         -4.208065943080     0.840631704146     0.575831463938
           H         -3.679519988747     1.535013701687    -0.978532064346

  Nuclear repulsion =  774.728852487969789

  ==> Basis Set <==

  Basis Set: 6-31G
    Number of shells: 81
    Number of basis function: 133
    Number of Cartesian functions: 133
    Spherical Harmonics?: false
    Max angular momentum: 1

  ==> DirectJKGrad: Integral-Direct SCF Gradients <==

    Gradient:                    1
    J tasked:                  Yes
    K tasked:                  Yes
    wK tasked:                  No
    Integrals threads:           1
    Schwarz Cutoff:          0E+00

  ==> DFT Potential <==

   => B3LYP Composite Functional <= 

    B3LYP Hybrid-GGA Exchange-Correlation Functional

    P.J. Stephens et. al., J. Phys. Chem., 98, 11623-11627, 1994

    Points   =           5000
    Deriv    =              1
    GGA      =           TRUE
    Meta     =          FALSE

    X_LRC        =          FALSE
    X_Hybrid     =           TRUE
    X_Alpha      =   2.000000E-01
    X_Omega      =   0.000000E+00
    C_LRC        =          FALSE
    C_Hybrid     =          FALSE
    C_SCS_Hybrid =          FALSE
    C_Alpha      =   0.000000E+00
    C_SS_Alpha   =   0.000000E+00
    C_OS_Alpha   =   0.000000E+00

   => Exchange Functionals <=

    0.8000  B3_X
    0.2000    HF 

   => Correlation Functionals <=

    0.1900 VWN3RPA_C
    0.8100 LYP_C
    0.0000 DF-MP2 

   => Molecular Quadrature <=

    Radial Scheme    =       TREUTLER
    Pruning Scheme   =           FLAT
    Nuclear Scheme   =       TREUTLER

    BS radius alpha  =              1
    Pruning alpha    =              1
    Radial Points    =             75
    Spherical Points =            302
    Total Points     =         461308
    Total Blocks     =            731
    Max Points       =           1000
    Max Functions    =            124


  -Total Gradient:
     Atom            X                  Y                   Z
    ------   -----------------  -----------------  -----------------
       1       -0.003468835991    -0.002087327390     0.000342224404
       2        0.000606306887    -0.000793475265     0.000311645303
       3        0.000618072349     0.000853052794    -0.000395420362
       4        0.000246799582     0.000346343236     0.000576233882
       5       -0.003018572884    -0.000345092875    -0.001818573799
       6        0.005265521353     0.003450040558    -0.000614311735
       7        0.005090115717    -0.000003841879    -0.000101853545
       8       -0.000108314941     0.002834966424     0.000744815406
       9        0.000090108677    -0.000665085236     0.000527044226
      10        0.002826608705     0.000885143507     0.001311017227
      11       -0.000675418426    -0.001885375200    -0.003242430742
      12        0.000314819497     0.002508399590    -0.001880895727
      13       -0.003746223654    -0.002908624497     0.001689889214
      14       -0.004414758086    -0.003627629693     0.000235964393
      15        0.001457950473     0.000809055596     0.000083597086
      16        0.000718779041     0.000337906249    -0.000369495348
      17        0.000212609409    -0.000111243025     0.000116308042
      18        0.000383235525    -0.000085740403     0.000018457232
      19       -0.000627659850    -0.000223264311     0.001324173918
      20       -0.001371532559    -0.000188986259    -0.000123082907
      21       -0.000423562325     0.000854177307     0.001238984498


*** tstop() called on hartree at Mon Dec 23 18:57:12 2013
Module time:
	user time   =     262.44 seconds =       4.37 minutes
	system time =       0.07 seconds =       0.00 minutes
	total time  =        264 seconds =       4.40 minutes
Total time:
	user time   =    1959.77 seconds =      32.66 minutes
	system time =      15.17 seconds =       0.25 minutes
	total time  =       2010 seconds =      33.50 minutes

			-----------------------------------------
			 OPTKING 2.0: for geometry optimizations 
			  - R.A. King,  Bethel University        
			-----------------------------------------

	Previous internal coordinate definitions found.
	---Fragment 1 Geometry and Gradient---
	 C           4.3439502332       -0.8483535347        0.1987570064
	 C           1.7601569185        3.4042428240       -1.5209716094
	 C           5.6777225678        1.3607890076       -0.3327869212
	 C           4.3797158945        3.4958596621       -1.1999187194
	 C          -6.6234757160        1.3893254943       -0.4768389528
	 C           1.7074802831       -0.9801758583       -0.1133510144
	 C           0.4321841707        1.1918119703       -0.9723871297
	 O           1.7346842749       -5.2774271006        1.3364489307
	 O          -3.3149216426        1.8357276844        2.7204113237
	 O          -2.0551801030       -3.5863880214        0.2133179897
	 C           0.5255866739       -3.4448971611        0.5263772723
	 C          -3.9606718602        1.5161204150        0.5181313475
	 O          -2.2116383337        1.2120803387       -1.4557913907
	 H          -2.6757117308       -5.2752767909        0.7004728726
	 H           5.3266813073       -2.5125723423        0.8735941812
	 H           0.7277545509        5.0344765312       -2.2050724812
	 H           7.7096696128        1.4143223106       -0.0711063395
	 H           5.3989281322        5.2230910126       -1.6258688861
	 H          -6.9287374049       -0.4256875747       -1.4157883635
	 H          -7.9520921815        1.5885636995        1.0881637655
	 H          -6.9532850792        2.9007555064       -1.8491576139
	            -0.0034688360       -0.0020873274        0.0003422244
	             0.0006063069       -0.0007934753        0.0003116453
	             0.0006180723        0.0008530528       -0.0003954204
	             0.0002467996        0.0003463432        0.0005762339
	            -0.0030185729       -0.0003450929       -0.0018185738
	             0.0052655214        0.0034500406       -0.0006143117
	             0.0050901157       -0.0000038419       -0.0001018535
	            -0.0001083149        0.0028349664        0.0007448154
	             0.0000901087       -0.0006650852        0.0005270442
	             0.0028266087        0.0008851435        0.0013110172
	            -0.0006754184       -0.0018853752       -0.0032424307
	             0.0003148195        0.0025083996       -0.0018808957
	            -0.0037462237       -0.0029086245        0.0016898892
	            -0.0044147581       -0.0036276297        0.0002359644
	             0.0014579505        0.0008090556        0.0000835971
	             0.0007187790        0.0003379062       -0.0003694953
	             0.0002126094       -0.0001112430        0.0001163080
	             0.0003832355       -0.0000857404        0.0000184572
	            -0.0006276599       -0.0002232643        0.0013241739
	            -0.0013715326       -0.0001889863       -0.0001230829
	            -0.0004235623        0.0008541773        0.0012389845

	---Fragment 1 Intrafragment Coordinates---
	 - Coordinate -           - BOHR/RAD -       - ANG/DEG -
	 R(1,3)           =         2.634729	       1.394239
	 R(1,6)           =         2.658150	       1.406633
	 R(1,15)          =         2.047142	       1.083301
	 R(2,4)           =         2.640749	       1.397425
	 R(2,7)           =         2.638050	       1.395996
	 R(2,16)          =         2.047318	       1.083394
	 R(3,4)           =         2.644856	       1.399598
	 R(3,17)          =         2.049427	       1.084510
	 R(4,18)          =         2.050257	       1.084950
	 R(5,12)          =         2.845447	       1.505746
	 R(5,19)          =         2.066176	       1.093373
	 R(5,20)          =         2.062559	       1.091459
	 R(5,21)          =         2.067959	       1.094317
	 R(6,7)           =         2.661175	       1.408233
	 R(6,11)          =         2.807308	       1.485563
	 R(7,13)          =         2.687729	       1.422285
	 R(8,11)          =         2.340149	       1.238354
	 R(9,12)          =         2.317149	       1.226183
	 R(10,11)         =         2.603533	       1.377730
	 R(10,14)         =         1.864061	       0.986419
	 R(12,13)         =         2.654794	       1.404856
	 B(1,3,4)         =         2.088128	     119.640900
	 B(1,3,17)        =         2.092147	     119.871187
	 B(1,6,7)         =         2.063195	     118.212354
	 B(1,6,11)        =         2.020119	     115.744297
	 B(2,4,3)         =         2.092873	     119.912798
	 B(2,4,18)        =         2.091043	     119.807965
	 B(2,7,6)         =         2.106430	     120.689532
	 B(2,7,13)        =         2.039178	     116.836293
	 B(3,1,6)         =         2.117638	     121.331703
	 B(3,1,15)        =         2.100321	     120.339501
	 B(3,4,18)        =         2.099268	     120.279220
	 B(4,2,7)         =         2.098055	     120.209722
	 B(4,2,16)        =         2.109732	     120.878730
	 B(4,3,17)        =         2.102911	     120.487899
	 B(5,12,9)        =         2.213395	     126.818205
	 B(5,12,13)       =         1.929903	     110.575289
	 B(6,1,15)        =         2.065221	     118.328447
	 B(6,7,13)        =         2.136023	     122.385104
	 B(6,11,8)        =         2.151820	     123.290199
	 B(6,11,10)       =         2.023766	     115.953225
	 B(7,2,16)        =         2.075385	     118.910804
	 B(7,6,11)        =         2.199850	     126.042107
	 B(7,13,12)       =         2.112030	     121.010385
	 B(8,11,10)       =         2.107405	     120.745409
	 B(9,12,13)       =         2.139887	     122.606506
	 B(11,10,14)      =         1.926015	     110.352530
	 B(12,5,19)       =         1.913789	     109.652027
	 B(12,5,20)       =         1.910480	     109.462424
	 B(12,5,21)       =         1.927007	     110.409365
	 B(19,5,20)       =         1.911869	     109.542049
	 B(19,5,21)       =         1.893258	     108.475688
	 B(20,5,21)       =         1.907302	     109.280342
	 D(1,3,4,2)       =         0.002967	       0.169997
	 D(1,3,4,18)      =        -3.137790	    -179.782135
	 D(1,6,7,2)       =         0.010896	       0.624316
	 D(1,6,7,13)      =         3.090683	     177.083073
	 D(1,6,11,8)      =         0.025780	       1.477088
	 D(1,6,11,10)     =        -3.136924	    -179.732528
	 D(2,4,3,17)      =        -3.137879	    -179.787198
	 D(2,7,6,11)      =        -3.138102	    -179.800003
	 D(2,7,13,12)     =        -1.778406	    -101.895159
	 D(3,1,6,7)       =        -0.004588	      -0.262883
	 D(3,1,6,11)      =        -3.139533	    -179.881978
	 D(3,4,2,7)       =         0.003309	       0.189574
	 D(3,4,2,16)      =        -3.132749	    -179.493287
	 D(4,2,7,6)       =        -0.010388	      -0.595199
	 D(4,2,7,13)      =        -3.093492	    -177.244011
	 D(4,3,1,6)       =        -0.002270	      -0.130067
	 D(4,3,1,15)      =        -3.140043	    -179.911236
	 D(5,12,13,7)     =        -3.110756	    -178.233190
	 D(6,1,3,17)      =         3.138580	     179.827395
	 D(6,7,2,16)      =         3.125778	     179.093864
	 D(6,7,13,12)     =         1.422749	      81.517525
	 D(6,11,10,14)    =        -3.129490	    -179.306552
	 D(7,2,4,18)      =        -3.139115	    -179.858067
	 D(7,6,1,15)      =         3.133260	     179.522560
	 D(7,6,11,8)      =        -3.108568	    -178.107798
	 D(7,6,11,10)     =         0.011913	       0.682585
	 D(7,13,12,9)     =         0.030726	       1.760450
	 D(8,11,10,14)    =        -0.008430	      -0.483024
	 D(9,12,5,19)     =        -2.118692	    -121.392120
	 D(9,12,5,20)     =        -0.020936	      -1.199572
	 D(9,12,5,21)     =         2.079409	     119.141350
	 D(11,6,1,15)     =        -0.001685	      -0.096535
	 D(11,6,7,13)     =        -0.058316	      -3.341246
	 D(13,7,2,16)     =         0.042674	       2.445051
	 D(13,12,5,19)    =         1.022784	      58.601187
	 D(13,12,5,20)    =         3.120539	     178.793735
	 D(13,12,5,21)    =        -1.062301	     -60.865343
	 D(15,1,3,17)     =         0.000807	       0.046226
	 D(16,2,4,18)     =         0.008012	       0.459073
	 D(17,3,4,18)     =         0.004550	       0.260670

	Current energy   :      -648.4948436955

	Energy change for the previous step:
		Projected    :        -0.0095084189
		Actual       :        -0.0082480957
	Energy ratio indicates good step: Trust radius increased to 8.000e-01.


	Performing BFGS update with previous 1 gradient(s).
	Going to follow RFO solution 1.
	Projected energy change by RFO approximation:        -0.0009050771

	Back-transformation to cartesian coordinates...
	Successfully converged to displaced geometry.

	---Internal Coordinate Step in ANG or DEG, aJ/ANG or AJ/DEG ---
	 ----------------------------------------------------------------------
	 Coordinate             Previous        Force       Change         New 
	 ----------             --------       ------       ------       ------
	 R(1,3)          =      1.394239    -0.003146    -0.000588     1.393651
	 R(1,6)          =      1.406633     0.008866     0.001271     1.407903
	 R(1,15)         =      1.083301    -0.000577    -0.000447     1.082854
	 R(2,4)          =      1.397425    -0.004930    -0.000425     1.397000
	 R(2,7)          =      1.395996    -0.011838    -0.001819     1.394177
	 R(2,16)         =      1.083394    -0.000245    -0.000222     1.083172
	 R(3,4)          =      1.399598     0.006887     0.001233     1.400831
	 R(3,17)         =      1.084510    -0.001848    -0.000478     1.084032
	 R(4,18)         =      1.084950    -0.000954    -0.000285     1.084665
	 R(5,12)         =      1.505746    -0.040063    -0.006795     1.498950
	 R(5,19)         =      1.093373     0.002616     0.000468     1.093841
	 R(5,20)         =      1.091459    -0.006361    -0.001257     1.090202
	 R(5,21)         =      1.094317     0.001054     0.000288     1.094604
	 R(6,7)          =      1.408233    -0.002344     0.000082     1.408315
	 R(6,11)         =      1.485563    -0.019360    -0.003275     1.482288
	 R(7,13)         =      1.422285    -0.069604    -0.007329     1.414956
	 R(8,11)         =      1.238354     0.016637     0.002092     1.240445
	 R(9,12)         =      1.226183    -0.003594    -0.000106     1.226077
	 R(10,11)        =      1.377730    -0.012669     0.000611     1.378341
	 R(10,14)        =      0.986419    -0.039677    -0.004176     0.982243
	 R(12,13)        =      1.404856    -0.024693    -0.002188     1.402668
	 B(1,3,4)        =    119.640900     0.000022     0.059331   119.700231
	 B(1,3,17)       =    119.871187    -0.000000     0.003048   119.874235
	 B(1,6,7)        =    118.212354    -0.000103    -0.277112   117.935242
	 B(1,6,11)       =    115.744297     0.000078     0.161605   115.905902
	 B(2,4,3)        =    119.912798     0.000002     0.008034   119.920833
	 B(2,4,18)       =    119.807965    -0.000030    -0.143167   119.664798
	 B(2,7,6)        =    120.689532     0.000157     0.394998   121.084530
	 B(2,7,13)       =    116.836293    -0.000088    -0.212857   116.623436
	 B(3,1,6)        =    121.331703    -0.000013     0.012139   121.343841
	 B(3,1,15)       =    120.339501     0.000136     0.644942   120.984443
	 B(3,4,18)       =    120.279220     0.000028     0.135110   120.414330
	 B(4,2,7)        =    120.209722    -0.000066    -0.196094   120.013628
	 B(4,2,16)       =    120.878730     0.000096     0.440100   121.318830
	 B(4,3,17)       =    120.487899    -0.000022    -0.062421   120.425478
	 B(5,12,9)       =    126.818205     0.000175     0.610411   127.428615
	 B(5,12,13)      =    110.575289    -0.000346    -0.847327   109.727962
	 B(6,1,15)       =    118.328447    -0.000123    -0.657193   117.671254
	 B(6,7,13)       =    122.385104    -0.000070    -0.217944   122.167160
	 B(6,11,8)       =    123.290199     0.000223     0.411512   123.701712
	 B(6,11,10)      =    115.953225    -0.000197    -0.567132   115.386093
	 B(7,2,16)       =    118.910804    -0.000030    -0.248109   118.662695
	 B(7,6,11)       =    126.042107     0.000025     0.116448   126.158555
	 B(7,13,12)      =    121.010385    -0.000316    -0.348682   120.661704
	 B(8,11,10)      =    120.745409    -0.000024    -0.109763   120.635646
	 B(9,12,13)      =    122.606506     0.000171     0.192262   122.798768
	 B(11,10,14)     =    110.352530    -0.000434    -1.378395   108.974135
	 B(12,5,19)      =    109.652027    -0.000027    -0.219181   109.432846
	 B(12,5,20)      =    109.462424    -0.000090    -0.207355   109.255070
	 B(12,5,21)      =    110.409365     0.000012     0.001016   110.410381
	 B(19,5,20)      =    109.542049     0.000095     0.629207   110.171256
	 B(19,5,21)      =    108.475688    -0.000068    -0.749883   107.725805
	 B(20,5,21)      =    109.280342     0.000080     0.549971   109.830313
	 D(1,3,4,2)      =      0.169997    -0.000000    -0.087882     0.082116
	 D(1,3,4,18)     =   -179.782135    -0.000002    -0.208224  -179.990359
	 D(1,6,7,2)      =      0.624316    -0.000006    -1.091371    -0.467055
	 D(1,6,7,13)     =    177.083073    -0.000010    -1.750601   175.332472
	 D(1,6,11,8)     =      1.477088    -0.000018    -5.800577    -4.323490
	 D(1,6,11,10)    =   -179.732528     0.000009     1.430653  -178.301876
	 D(2,4,3,17)     =   -179.787198    -0.000000    -0.044631  -179.831828
	 D(2,7,6,11)     =   -179.800003    -0.000004    -0.875912  -180.675915
	 D(2,7,13,12)    =   -101.895159    -0.000021   -10.192064  -112.087223
	 D(3,1,6,7)      =     -0.262883     0.000003     0.544102     0.281219
	 D(3,1,6,11)     =   -179.881978     0.000001     0.350666  -179.531312
	 D(3,4,2,7)      =      0.189574    -0.000003    -0.455826    -0.266252
	 D(3,4,2,16)     =   -179.493287    -0.000000     0.038724  -179.454563
	 D(4,2,7,6)      =     -0.595199     0.000006     1.061359     0.466160
	 D(4,2,7,13)     =   -177.244011     0.000010     1.687217  -175.556794
	 D(4,3,1,6)      =     -0.130067     0.000000     0.036008    -0.094059
	 D(4,3,1,15)     =   -179.911236     0.000000     0.070264  -179.840971
	 D(5,12,13,7)    =   -178.233190     0.000015     5.191865  -173.041325
	 D(6,1,3,17)     =    179.827395     0.000000    -0.007030   179.820364
	 D(6,7,2,16)     =    179.093864     0.000004     0.582042   179.675906
	 D(6,7,13,12)    =     81.517525    -0.000019    -9.581075    71.936450
	 D(6,11,10,14)   =   -179.306552    -0.000008    -2.386201  -181.692753
	 D(7,2,4,18)     =   -179.858067    -0.000002    -0.336257  -180.194324
	 D(7,6,1,15)     =    179.522560     0.000003     0.513664   180.036224
	 D(7,6,11,8)     =   -178.107798    -0.000019    -6.010554  -184.118353
	 D(7,6,11,10)    =      0.682585     0.000007     1.220675     1.903261
	 D(7,13,12,9)    =      1.760450     0.000021     7.464226     9.224676
	 D(8,11,10,14)   =     -0.483024     0.000019     4.611815     4.128791
	 D(9,12,5,19)    =   -121.392120    -0.000012    -0.934810  -122.326930
	 D(9,12,5,20)    =     -1.199572    -0.000002    -0.425988    -1.625561
	 D(9,12,5,21)    =    119.141350     0.000010     0.122919   119.264268
	 D(11,6,1,15)    =     -0.096535     0.000002     0.320228     0.223693
	 D(11,6,7,13)    =     -3.341246    -0.000008    -1.535142    -4.876388
	 D(13,7,2,16)    =      2.445051     0.000007     1.207901     3.652952
	 D(13,12,5,19)   =     58.601187    -0.000006     1.470553    60.071740
	 D(13,12,5,20)   =    178.793735     0.000004     1.979375   180.773110
	 D(13,12,5,21)   =    -60.865343     0.000016     2.528282   -58.337061
	 D(15,1,3,17)    =      0.046226     0.000000     0.027226     0.073452
	 D(16,2,4,18)    =      0.459073     0.000001     0.158293     0.617365
	 D(17,3,4,18)    =      0.260670    -0.000001    -0.164973     0.095697
	 ----------------------------------------------------------------------

  ==> Convergence Check <==

  Measures of convergence in internal coordinates in au.
  Criteria marked as inactive (o), active & met (*), and active & unmet ( ).
  ---------------------------------------------------------------------------------------------
   Step     Total Energy     Delta E     MAX Force     RMS Force      MAX Disp      RMS Disp   
  ---------------------------------------------------------------------------------------------
    Convergence Criteria    1.00e-06 *    3.00e-04 *             o    1.20e-03 *             o
  ---------------------------------------------------------------------------------------------
      2    -648.49484370   -8.25e-03      8.45e-03      1.72e-03 o    1.78e-01      3.69e-02 o  ~
  ---------------------------------------------------------------------------------------------

	Writing optimization data to binary file.
	Structure for next step:
	Cartesian Geometry (in Angstrom)
	    C     2.2744565889  -0.4423440363   0.1021614504
	    C     0.9703801694   1.8502404710  -0.8018739002
	    C     3.0150162637   0.6980029881  -0.2035241893
	    C     2.3600091768   1.8496256163  -0.6585612103
	    C    -3.4689572966   0.6273822037  -0.2594092194
	    C     0.8733777142  -0.4641424065  -0.0345661424
	    C     0.2374114510   0.7040018052  -0.4975316424
	    O     0.8178258954  -2.7620481804   0.6675016585
	    O    -1.7518032536   0.8564991202   1.4677171672
	    O    -1.1609101356  -1.7572029447   0.1616128190
	    C     0.2064217536  -1.7355276848   0.3341165402
	    C    -2.0797357727   0.7409042943   0.2919783253
	    O    -1.1521470267   0.7516063224  -0.7601352395
	    H    -1.4996897244  -2.6459804454   0.4067732770
	    H     2.7590795444  -1.3429967622   0.4578818161
	    H     0.4416927187   2.7251245467  -1.1601032869
	    H     4.0927023053   0.6893411789  -0.0867189521
	    H     2.9249757068   2.7435120947  -0.8999672424
	    H    -3.5591093978  -0.3012287695  -0.8304112388
	    H    -4.1840062141   0.6336067427   0.5635169463
	    H    -3.6786980637   1.4587267314  -0.9398751557
			--------------------------
			 OPTKING Finished Execution 
			--------------------------

    Structure for next step:
    Molecular point group: c1
    Full point group: C1

    Geometry (in Angstrom), charge = 0, multiplicity = 1:

    C            2.285563162078    -0.461035644185     0.094694149905
    C            0.981486842184     1.831548688013    -0.809341131666
    C            3.026122780351     0.679311293119    -0.210991466523
    C            2.371115743418     1.830933833343    -0.666028452731
    C           -3.457850284837     0.608690514143    -0.266876492271
    C            0.884484394370    -0.482834012699    -0.042033432491
    C            0.248518179730     0.685310109705    -0.504998897150
    O            0.828932579810    -2.780739611127     0.660034314783
    O           -1.740696372968     0.837807413131     1.460249762414
    O           -1.149803300085    -1.775894452189     0.154145513904
    C            0.217528484676    -1.754219193964     0.326649221980
    C           -2.068628867042     0.722212596042     0.284511010266
    O           -1.141040191855     0.732914623348    -0.767602474171
    H           -1.488582862985    -2.664671884991     0.399305953231
    H            2.770186080602    -1.361688301288     0.450414488377
    H            0.452799431822     2.706432696864    -1.167570491070
    H            4.103808739651     0.670649484546    -0.094186238209
    H            2.936082230270     2.724820243506    -0.907434466398
    H           -3.548002379119    -0.319920388165    -0.837878468076
    H           -4.172899147730     0.614915052652     0.556049610540
    H           -3.667591035964     1.440034978280    -0.947342376662


*** tstart() called on hartree
*** at Mon Dec 23 18:57:12 2013

	There are an even number of electrons - assuming singlet.
	Specify the multiplicity with the MULTP option in the
	input if this is incorrect


[...]
	             0.0000035455       -0.0000010882        0.0000021583
	            -0.0000004923        0.0000001507       -0.0000195256
	             0.0000112731       -0.0000287249        0.0000224179
	             0.0000053794        0.0000158406       -0.0000127689
	             0.0000115143        0.0000066442        0.0000112953
	            -0.0000065793        0.0000070982        0.0000204201
	             0.0000005902        0.0000004773        0.0000043699
	             0.0000008437       -0.0000008268       -0.0000040008
	             0.0000002361       -0.0000017558       -0.0000000889
	             0.0000027911       -0.0000018869       -0.0000033494
	             0.0000014011        0.0000040364       -0.0000005425
	             0.0000024826        0.0000069818       -0.0000017350
	             0.0000027547        0.0000039163       -0.0000020530

	---Fragment 1 Intrafragment Coordinates---
	 - Coordinate -           - BOHR/RAD -       - ANG/DEG -
	 R(1,3)           =         2.631124	       1.392331
	 R(1,6)           =         2.664241	       1.409856
	 R(1,15)          =         2.047467	       1.083473
	 R(2,4)           =         2.638117	       1.396031
	 R(2,7)           =         2.638020	       1.395980
	 R(2,16)          =         2.047013	       1.083233
	 R(3,4)           =         2.647001	       1.400733
	 R(3,17)          =         2.048842	       1.084201
	 R(4,18)          =         2.050015	       1.084821
	 R(5,12)          =         2.828663	       1.496864
	 R(5,19)          =         2.069328	       1.095041
	 R(5,20)          =         2.059943	       1.090075
	 R(5,21)          =         2.066507	       1.093548
	 R(6,7)           =         2.663670	       1.409553
	 R(6,11)          =         2.794635	       1.478857
	 R(7,13)          =         2.663463	       1.409444
	 R(8,11)          =         2.342365	       1.239526
	 R(9,12)          =         2.314824	       1.224952
	 R(10,11)         =         2.608366	       1.380288
	 R(10,14)         =         1.855555	       0.981918
	 R(12,13)         =         2.657579	       1.406330
	 B(1,3,4)         =         2.088195	     119.644736
	 B(1,3,17)        =         2.093893	     119.971259
	 B(1,6,7)         =         2.057559	     117.889426
	 B(1,6,11)        =         2.019439	     115.705356
	 B(2,4,3)         =         2.092656	     119.900365
	 B(2,4,18)        =         2.089623	     119.726559
	 B(2,7,6)         =         2.109226	     120.849759
	 B(2,7,13)        =         2.023333	     115.928423
	 B(3,1,6)         =         2.120321	     121.485433
	 B(3,1,15)        =         2.112565	     121.041034
	 B(3,4,18)        =         2.100894	     120.372345
	 B(4,2,7)         =         2.098317	     120.224696
	 B(4,2,16)        =         2.119380	     121.431509
	 B(4,3,17)        =         2.101095	     120.383883
	 B(5,12,9)        =         2.227002	     127.597822
	 B(5,12,13)       =         1.912739	     109.591881
	 B(6,1,15)        =         2.050292	     117.473100
	 B(6,7,13)        =         2.149157	     123.137653
	 B(6,11,8)        =         2.167035	     124.161966
	 B(6,11,10)       =         2.016718	     115.549436
	 B(7,2,16)        =         2.065488	     118.343728
	 B(7,6,11)        =         2.206136	     126.402288
	 B(7,13,12)       =         2.108760	     120.823035
	 B(8,11,10)       =         2.099277	     120.279687
	 B(9,12,13)       =         2.143416	     122.808682
	 B(11,10,14)      =         1.894846	     108.566674
	 B(12,5,19)       =         1.899608	     108.839542
	 B(12,5,20)       =         1.914774	     109.708481
	 B(12,5,21)       =         1.930718	     110.622012
	 B(19,5,20)       =         1.916366	     109.799696
	 B(19,5,21)       =         1.877398	     107.566981
	 B(20,5,21)       =         1.924469	     110.263962
	 D(1,3,4,2)       =         0.008351	       0.478497
	 D(1,3,4,18)      =        -3.138685	    -179.833417
	 D(1,6,7,2)       =         0.013924	       0.797806
	 D(1,6,7,13)      =         3.094894	     177.324339
	 D(1,6,11,8)      =         0.066061	       3.784997
	 D(1,6,11,10)     =        -3.056564	    -175.128193
	 D(2,4,3,17)      =        -3.135452	    -179.648153
	 D(2,7,6,11)      =        -3.116287	    -178.550064
	 D(2,7,13,12)     =        -1.955252	    -112.027687
	 D(3,1,6,7)       =        -0.011513	      -0.659649
	 D(3,1,6,11)      =         3.119913	     178.757824
	 D(3,4,2,7)       =        -0.005934	      -0.339990
	 D(3,4,2,16)      =         3.137331	     179.755799
	 D(4,2,7,6)       =        -0.005436	      -0.311446
	 D(4,2,7,13)      =        -3.090588	    -177.077630
	 D(4,3,1,6)       =         0.000532	       0.030477
	 D(4,3,1,15)      =         3.137841	     179.785058
	 D(5,12,13,7)     =        -3.019146	    -172.984348
	 D(6,1,3,17)      =        -3.138860	    -179.843402
	 D(6,7,2,16)      =         3.134536	     179.595687
	 D(6,7,13,12)     =         1.244209	      71.287919
	 D(6,11,10,14)    =        -3.129839	    -179.326560
	 D(7,2,4,18)      =         3.141067	     179.969896
	 D(7,6,1,15)      =         3.134216	     179.577352
	 D(7,6,11,8)      =        -3.086697	    -176.854694
	 D(7,6,11,10)     =         0.073864	       4.232115
	 D(7,13,12,9)     =         0.129958	       7.446034
	 D(8,11,10,14)    =         0.029929	       1.714787
	 D(9,12,5,19)     =        -1.957215	    -112.140169
	 D(9,12,5,20)     =         0.139955	       8.018832
	 D(9,12,5,21)     =         2.266862	     129.881607
	 D(11,6,1,15)     =        -0.017544	      -1.005174
	 D(11,6,7,13)     =        -0.035317	      -2.023531
	 D(13,7,2,16)     =         0.049384	       2.829503
	 D(13,12,5,19)    =         1.192346	      68.316380
	 D(13,12,5,20)    =        -2.993669	    -171.524619
	 D(13,12,5,21)    =        -0.866763	     -49.661845
	 D(15,1,3,17)     =        -0.001550	      -0.088821
	 D(16,2,4,18)     =         0.001146	       0.065686
	 D(17,3,4,18)     =         0.000697	       0.039933

	Current energy   :      -648.4956978095

	Energy change for the previous step:
		Projected    :        -0.0000001852
		Actual       :        -0.0000001209

	Performing BFGS update with previous 1 gradient(s).
	Going to follow RFO solution 1.
	Projected energy change by RFO approximation:        -0.0000000315

	Back-transformation to cartesian coordinates...
	Successfully converged to displaced geometry.

	---Internal Coordinate Step in ANG or DEG, aJ/ANG or AJ/DEG ---
	 ----------------------------------------------------------------------
	 Coordinate             Previous        Force       Change         New 
	 ----------             --------       ------       ------       ------
	 R(1,3)          =      1.392331     0.000020     0.000004     1.392335
	 R(1,6)          =      1.409856     0.000037     0.000002     1.409858
	 R(1,15)         =      1.083473    -0.000012    -0.000002     1.083471
	 R(2,4)          =      1.396031     0.000057     0.000010     1.396041
	 R(2,7)          =      1.395980    -0.000080    -0.000016     1.395964
	 R(2,16)         =      1.083233    -0.000001    -0.000000     1.083233
	 R(3,4)          =      1.400733    -0.000034    -0.000004     1.400729
	 R(3,17)         =      1.084201     0.000002     0.000000     1.084201
	 R(4,18)         =      1.084821     0.000000    -0.000000     1.084821
	 R(5,12)         =      1.496864    -0.000015    -0.000005     1.496859
	 R(5,19)         =      1.095041    -0.000008    -0.000003     1.095038
	 R(5,20)         =      1.090075     0.000018     0.000004     1.090079
	 R(5,21)         =      1.093548    -0.000001     0.000000     1.093549
	 R(6,7)          =      1.409553     0.000021     0.000002     1.409555
	 R(6,11)         =      1.478857    -0.000065    -0.000023     1.478835
	 R(7,13)         =      1.409444     0.000146     0.000023     1.409467
	 R(8,11)         =      1.239526     0.000207     0.000017     1.239543
	 R(9,12)         =      1.224952    -0.000024    -0.000002     1.224951
	 R(10,11)        =      1.380288    -0.000037    -0.000009     1.380280
	 R(10,14)        =      0.981918    -0.000023    -0.000007     0.981911
	 R(12,13)        =      1.406330     0.000123     0.000013     1.406344
	 B(1,3,4)        =    119.644736     0.000000     0.000316   119.645053
	 B(1,3,17)       =    119.971259     0.000000    -0.000036   119.971223
	 B(1,6,7)        =    117.889426    -0.000000    -0.000268   117.889158
	 B(1,6,11)       =    115.705356     0.000001     0.003005   115.708361
	 B(2,4,3)        =    119.900365     0.000000     0.000163   119.900528
	 B(2,4,18)       =    119.726559    -0.000000    -0.000449   119.726110
	 B(2,7,6)        =    120.849759     0.000000     0.001172   120.850931
	 B(2,7,13)       =    115.928423     0.000001     0.004081   115.932504
	 B(3,1,6)        =    121.485433    -0.000000    -0.000583   121.484850
	 B(3,1,15)       =    121.041034     0.000000     0.000979   121.042013
	 B(3,4,18)       =    120.372345     0.000000     0.000275   120.372620
	 B(4,2,7)        =    120.224696    -0.000000    -0.000793   120.223902
	 B(4,2,16)       =    121.431509    -0.000000    -0.000525   121.430984
	 B(4,3,17)       =    120.383883    -0.000000    -0.000283   120.383600
	 B(5,12,9)       =    127.597822    -0.000000    -0.001632   127.596190
	 B(5,12,13)      =    109.591881     0.000000     0.002058   109.593939
	 B(6,1,15)       =    117.473100    -0.000000    -0.000381   117.472719
	 B(6,7,13)       =    123.137653    -0.000001    -0.004784   123.132869
	 B(6,11,8)       =    124.161966     0.000000     0.001056   124.163022
	 B(6,11,10)      =    115.549436     0.000000    -0.000639   115.548797
	 B(7,2,16)       =    118.343728     0.000000     0.001325   118.345053
	 B(7,6,11)       =    126.402288    -0.000001    -0.002690   126.399597
	 B(7,13,12)      =    120.823035    -0.000001    -0.005493   120.817542
	 B(8,11,10)      =    120.279687    -0.000000    -0.000194   120.279494
	 B(9,12,13)      =    122.808682    -0.000000    -0.000471   122.808211
	 B(11,10,14)     =    108.566674    -0.000000    -0.001719   108.564954
	 B(12,5,19)      =    108.839542     0.000000     0.001842   108.841384
	 B(12,5,20)      =    109.708481    -0.000000    -0.001004   109.707476
	 B(12,5,21)      =    110.622012     0.000000     0.000563   110.622575
	 B(19,5,20)      =    109.799696    -0.000000    -0.001337   109.798359
	 B(19,5,21)      =    107.566981    -0.000000     0.000998   107.567979
	 B(20,5,21)      =    110.263962    -0.000000    -0.001002   110.262959
	 D(1,3,4,2)      =      0.478497     0.000000     0.003234     0.481731
	 D(1,3,4,18)     =   -179.833417     0.000000     0.001079  -179.832338
	 D(1,6,7,2)      =      0.797806     0.000000    -0.000158     0.797648
	 D(1,6,7,13)     =    177.324339     0.000000     0.009668   177.334007
	 D(1,6,11,8)     =      3.784997    -0.000000    -0.053356     3.731642
	 D(1,6,11,10)    =   -175.128193    -0.000000    -0.067088  -175.195281
	 D(2,4,3,17)     =   -179.648153     0.000000     0.001865  -179.646288
	 D(2,7,6,11)     =   -178.550064    -0.000000    -0.005427  -178.555492
	 D(2,7,13,12)    =   -112.027687     0.000000     0.050798  -111.976889
	 D(3,1,6,7)      =     -0.659649     0.000000     0.005003    -0.654646
	 D(3,1,6,11)     =    178.757824     0.000000     0.009675   178.767500
	 D(3,4,2,7)      =     -0.339990     0.000000     0.001507    -0.338484
	 D(3,4,2,16)     =    179.755799    -0.000000    -0.003403   179.752396
	 D(4,2,7,6)      =     -0.311446    -0.000000    -0.003046    -0.314491
	 D(4,2,7,13)     =   -177.077630    -0.000000    -0.011905  -177.089534
	 D(4,3,1,6)      =      0.030477    -0.000000    -0.006571     0.023906
	 D(4,3,1,15)     =    179.785058    -0.000000    -0.002422   179.782636
	 D(5,12,13,7)    =   -172.984348     0.000000     0.001680  -172.982667
	 D(6,1,3,17)     =   -179.843402    -0.000000    -0.005207  -179.848609
	 D(6,7,2,16)     =    179.595687     0.000000     0.001713   179.597400
	 D(6,7,13,12)    =     71.287919     0.000000     0.041493    71.329413
	 D(6,11,10,14)   =   -179.326560    -0.000000    -0.030729  -179.357289
	 D(7,2,4,18)     =    179.969896     0.000000     0.003645   179.973541
	 D(7,6,1,15)     =    179.577352    -0.000000     0.000994   179.578346
	 D(7,6,11,8)     =   -176.854694    -0.000000    -0.048205  -176.902899
	 D(7,6,11,10)    =      4.232115    -0.000000    -0.061938     4.170178
	 D(7,13,12,9)    =      7.446034     0.000000     0.007549     7.453583
	 D(8,11,10,14)   =      1.714787    -0.000000    -0.043903     1.670884
	 D(9,12,5,19)    =   -112.140169    -0.000000    -0.002064  -112.142233
	 D(9,12,5,20)    =      8.018832    -0.000000    -0.003174     8.015658
	 D(9,12,5,21)    =    129.881607    -0.000000    -0.004730   129.876877
	 D(11,6,1,15)    =     -1.005174     0.000000     0.005666    -0.999508
	 D(11,6,7,13)    =     -2.023531     0.000000     0.004399    -2.019132
	 D(13,7,2,16)    =      2.829503    -0.000000    -0.007147     2.822357
	 D(13,12,5,19)   =     68.316380     0.000000     0.004154    68.320534
	 D(13,12,5,20)   =   -171.524619     0.000000     0.003044  -171.521575
	 D(13,12,5,21)   =    -49.661845     0.000000     0.001489   -49.660356
	 D(15,1,3,17)    =     -0.088821     0.000000    -0.001059    -0.089880
	 D(16,2,4,18)    =      0.065686    -0.000000    -0.001264     0.064421
	 D(17,3,4,18)    =      0.039933    -0.000000    -0.000290     0.039643
	 ----------------------------------------------------------------------

  ==> Convergence Check <==

  Measures of convergence in internal coordinates in au.
  Criteria marked as inactive (o), active & met (*), and active & unmet ( ).
  ---------------------------------------------------------------------------------------------
   Step     Total Energy     Delta E     MAX Force     RMS Force      MAX Disp      RMS Disp   
  ---------------------------------------------------------------------------------------------
    Convergence Criteria    1.00e-06 *    3.00e-04 *             o    1.20e-03 *             o
  ---------------------------------------------------------------------------------------------
     16    -648.49569781   -1.21e-07 *    2.51e-05 *    5.71e-06 o    1.17e-03 *    2.66e-04 o  ~
  ---------------------------------------------------------------------------------------------


  **** Optimization is complete! ****

  ==> Optimization Summary <==

  Measures of convergence in internal coordinates in au.
  --------------------------------------------------------------------------------------------------------------- ~
   Step         Total Energy             Delta E       MAX Force       RMS Force        MAX Disp        RMS Disp  ~
  --------------------------------------------------------------------------------------------------------------- ~
      1    -648.486595599772   -648.486595599772      0.03985203      0.00845236      0.14813952      0.03214031  ~
      2    -648.494843695518     -0.008248095746      0.00844834      0.00172342      0.17788507      0.03686057  ~
      3    -648.494758956534      0.000084738985      0.00654422      0.00166951      0.12108989      0.02815656  ~
      4    -648.494989193516     -0.000230236982      0.00419617      0.00132658      0.05000210      0.00722902  ~
      5    -648.495283072307     -0.000293878791      0.00299090      0.00103905      0.09998868      0.01719959  ~
      6    -648.495440642484     -0.000157570177      0.00232417      0.00070728      0.09996474      0.02472886  ~
      7    -648.494966477063      0.000474165420      0.00620577      0.00165253      0.02499959      0.00708209  ~
      8    -648.495428082206     -0.000461605142      0.00178863      0.00071521      0.05001937      0.01395858  ~
      9    -648.495429934365     -0.000001852160      0.00252174      0.00077988      0.01249953      0.00283949  ~
     10    -648.495554116790     -0.000124182425      0.00179169      0.00054397      0.02499794      0.00578124  ~
     11    -648.495659778252     -0.000105661462      0.00069664      0.00019187      0.02190519      0.00633179  ~
     12    -648.495686820555     -0.000027042303      0.00036611      0.00008819      0.01249011      0.00305750  ~
     13    -648.495690788053     -0.000003967498      0.00017711      0.00005386      0.01960202      0.00466323  ~
     14    -648.495694491957     -0.000003703904      0.00028358      0.00006830      0.03091288      0.00735939  ~
     15    -648.495697688671     -0.000003196714      0.00013080      0.00003274      0.00252669      0.00069020  ~
     16    -648.495697809541     -0.000000120870      0.00002513      0.00000571      0.00117091      0.00026576  ~
  --------------------------------------------------------------------------------------------------------------- ~

	Writing optimization data to binary file.
	Final energy is   -648.4956978095414
	Final (previous) structure:
	Cartesian Geometry (in Angstrom)
	    C     2.2818403609  -0.4491232494   0.1080783178
	    C     0.9699253067   1.8257031746  -0.8204457656
	    C     3.0167750605   0.6934796468  -0.1967421902
	    C     2.3576230781   1.8358632147  -0.6684736933
	    C    -3.4621884730   0.6509266081  -0.2404339402
	    C     0.8810927888  -0.4869019939  -0.0473973633
	    C     0.2374452472   0.6784366231  -0.5105866254
	    O     0.8330566101  -2.7568303722   0.7445871629
	    O    -1.7310832586   0.8157622874   1.4784649906
	    O    -1.1222563605  -1.8407373928   0.0343094509
	    C     0.2330949748  -1.7735608057   0.2867089212
	    C    -2.0708264446   0.7431995015   0.3038085743
	    O    -1.1484719124   0.7466379954  -0.7578011483
	    H    -1.4464618127  -2.7281906665   0.3016662952
	    H     2.7688269716  -1.3462966126   0.4711726061
	    H     0.4345914838   2.6962940524  -1.1794481852
	    H     4.0935820440   0.6945941155  -0.0703435308
	    H     2.9188996153   2.7316515931  -0.9121308767
	    H    -3.6025072354  -0.3393075822  -0.6863741144
	    H    -4.1823127902   0.7988340747   0.5644313890
	    H    -3.6174347773   1.3928719689  -1.0286369212
	Saving final (previous) structure.
			--------------------------
			 OPTKING Finished Execution 
			--------------------------

    Final optimized geometry and variables:
    Molecular point group: c1
    Full point group: C1

    Geometry (in Angstrom), charge = 0, multiplicity = 1:

    C            2.281840186652    -0.449123215100     0.108078309553
    C            0.969925232599     1.825703035133    -0.820445702934
    C            3.016774830125     0.693479593820    -0.196742175192
    C            2.357622898059     1.835863074545    -0.668473642281
    C           -3.462188208608     0.650926558384    -0.240433921819
    C            0.881092721558    -0.486901956714    -0.047397359644
    C            0.237445229043     0.678436571319    -0.510586586454
    O            0.833056546468    -2.756830161693     0.744587106040
    O           -1.731083126400     0.815762225081     1.478464877716
    O           -1.122256274800    -1.840737252268     0.034309448275
    C            0.233094956988    -1.773560670251     0.286708899296
    C           -2.070826286444     0.743199444753     0.303808551054
    O           -1.148471824687     0.746637938394    -0.757801090436
    H           -1.446461702242    -2.728190458146     0.301666272198
    H            2.768826760116    -1.346296509754     0.471172570082
    H            0.434591450576     2.696293846468    -1.179448095094
    H            4.093581731368     0.694594062472    -0.070343525400
    H            2.918899392444     2.731651384522    -0.912130807078
    H           -3.602506960318    -0.339307556319    -0.686374062018
    H           -4.182312470860     0.798834013739     0.564431345906
    H           -3.617434501096     1.392871862574    -1.028636842684


*** PSI4 exiting successfully. Buy a developer a beer!
