    -----------------------------------------------------------------------
          PSI4: An Open-Source Ab Initio Electronic Structure Package
                              PSI 4.0.0-beta5 Driver

    J. M. Turney, A. C. Simmonett, R. M. Parrish, E. G. Hohenstein,
    F. A. Evangelista, J. T. Fermann, B. J. Mintz, L. A. Burns, J. J. Wilke,
    M. L. Abrams, N. J. Russ, M. L. Leininger, C. L. Janssen, E. T. Seidl,
    W. D. Allen, H. F. Schaefer, R. A. King, E. F. Valeev, C. D. Sherrill,
    and T. D. Crawford, WIREs Comput. Mol. Sci., (2011) (doi: 10.1002/wcms.93)

                         Additional Contributions by
    A. E. DePrince, M. Saitow, U. Bozkaya, A. Yu. Sokolov
    -----------------------------------------------------------------------

    Process ID:  27427
    PSI4DATADIR: /usr/share/psi

    Using LocalCommunicator (Number of processes = 1)

    Memory level set to 256.000 MB

  ==> Input File <==

--------------------------------------------------------------------------
#! RHF 6-31G energy for the qmspeedtest molecule, with Cartesian input.

molecule qmspeedtest {
C          2.05639       -0.16543        0.39727
C          0.68890        2.02854       -0.64816
C          2.74071        1.02327        0.12533
C          2.05734        2.11782       -0.40016
C         -3.59396        1.03209        0.04589
C          0.67738       -0.27507        0.15097
C          0.00274        0.84234       -0.35887
O          0.63293       -2.54526        0.93360
O         -1.76452        1.43252        1.56571
O         -1.24894       -1.68411        0.12975
C          0.05278       -1.58881        0.44958
C         -2.15199        1.12841        0.44513
O         -1.36167        0.82832       -0.65825
H         -1.47652       -2.60111        0.39232
H          2.60948       -1.01173        0.80284
H          0.15708        2.88266       -1.05823
H          3.80777        1.09126        0.32364
H          2.59044        3.04081       -0.61405
H         -3.81640        0.02049       -0.30287
H         -4.22480        1.24591        0.91440
H         -3.81296        1.76576       -0.73332
}

set {
    basis		6-31G
    guess		sad
    scf_type		out_of_core
    df_scf_guess	false
}

thisenergy = optimize('scf')
--------------------------------------------------------------------------

*** tstart() called on hartree
*** at Mon Dec 23 13:15:48 2013

	There are an even number of electrons - assuming singlet.
	Specify the multiplicity with the MULTP option in the
	input if this is incorrect


         ---------------------------------------------------------
                                   SCF
            by Justin Turney, Rob Parrish, and Andy Simmonett
                              RHF Reference
                        1 Threads,    256 MiB Core
         ---------------------------------------------------------

  ==> Geometry <==

    Molecular point group: c1
    Full point group: C1

    Geometry (in Angstrom), charge = 0, multiplicity = 1:

       Center              X                  Y                   Z       
    ------------   -----------------  -----------------  -----------------
           C          2.243519388986    -0.436010072222     0.209929128352
           C          0.876029388986     1.757959927778    -0.835500871648
           C          2.927839388986     0.752689927778    -0.062010871648
           C          2.244469388986     1.847239927778    -0.587500871648
           C         -3.406830611014     0.761509927778    -0.141450871648
           C          0.864509388986    -0.545650072222    -0.036370871648
           C          0.189869388986     0.571759927778    -0.546210871648
           O          0.820059388986    -2.815840072222     0.746259128352
           O         -1.577390611014     1.161939927778     1.378369128352
           O         -1.061810611014    -1.954690072222    -0.057590871648
           C          0.239909388986    -1.859390072222     0.262239128352
           C         -1.964860611014     0.857829927778     0.257789128352
           O         -1.174540611014     0.557739927778    -0.845590871648
           H         -1.289390611014    -2.871690072222     0.204979128352
           H          2.796609388986    -1.282310072222     0.615499128352
           H          0.344209388986     2.612079927778    -1.245570871648
           H          3.994899388986     0.820679927778     0.136299128352
           H          2.777569388986     2.770229927778    -0.801390871648
           H         -3.629270611014    -0.250090072222    -0.490210871648
           H         -4.037670611014     0.975329927778     0.727059128352
           H         -3.625830611014     1.495179927778    -0.920660871648

  Running in c1 symmetry.

  Nuclear repulsion =  782.661162009394275

  Charge       = 0
  Multiplicity = 1
  Electrons    = 94
  Nalpha       = 47
  Nbeta        = 47

  ==> Algorithm <==

  SCF Algorithm Type is OUT_OF_CORE.
  DIIS enabled.
  MOM disabled.
  Fractional occupation disabled.
  Guess Type is SAD.
  Energy threshold   = 1.00e-08
  Density threshold  = 1.00e-08
  Integral threshold = 0.00e+00

  ==> Primary Basis <==

  Basis Set: 6-31G
    Number of shells: 81
    Number of basis function: 133
    Number of Cartesian functions: 133
    Spherical Harmonics?: false
    Max angular momentum: 1

  ==> Pre-Iterations <==

   -------------------------------------------------------
    Irrep   Nso     Nmo     Nalpha   Nbeta   Ndocc  Nsocc
   -------------------------------------------------------
     A        133     133       0       0       0       0
   -------------------------------------------------------
    Total     133     133      47      47      47       0
   -------------------------------------------------------

 OEINTS: Wrapper to libmints.
   by Justin Turney

   Calculation information:
      Number of atoms:                  21
      Number of AO shells:              81
      Number of SO shells:              81
      Number of primitives:            214
      Number of atomic orbitals:       133
      Number of basis functions:       133

      Number of irreps:                  1
      Number of functions per irrep: [ 133 ]

      Overlap, kinetic, potential, dipole, and quadrupole integrals
        stored in file 35.

  ==> Integral Setup <==

 MINTS: Wrapper to libmints.
   by Justin Turney

   Calculation information:
      Number of atoms:                  21
      Number of AO shells:              81
      Number of SO shells:              81
      Number of primitives:            214
      Number of atomic orbitals:       133
      Number of basis functions:       133

      Number of irreps:                  1
      Integral cutoff                 0.00e+00
      Number of functions per irrep: [ 133 ]

      Overlap, kinetic, potential, dipole, and quadrupole integrals
        stored in file 35.

      Computing two-electron integrals...done
      Computed 39700633 non-zero two-electron integrals.
        Stored in file 33.

  ==> DiskJK: Disk-Based J/K Matrices <==

    J tasked:                  Yes
    K tasked:                  Yes
    wK tasked:                  No
    Memory (MB):               183
    Schwarz Cutoff:          1E-12

  Minimum eigenvalue in the overlap matrix is 5.3740072090E-04.
  Using Symmetric Orthogonalization.
  SCF Guess: Superposition of Atomic Densities via on-the-fly atomic UHF.

  ==> Iterations <==

                        Total Energy        Delta E     RMS |[F,P]|

   @RHF iter   0:  -651.81459350669365   -6.51815e+02   5.01067e-02 
   @RHF iter   1:  -644.21609626439454    7.59850e+00   6.27081e-03 
   @RHF iter   2:  -644.46250848458408   -2.46412e-01   5.11786e-03 DIIS
   @RHF iter   3:  -644.64613864649823   -1.83630e-01   8.66279e-04 DIIS
   @RHF iter   4:  -644.65848589213147   -1.23472e-02   3.84138e-04 DIIS
   @RHF iter   5:  -644.66066497211477   -2.17908e-03   1.40228e-04 DIIS
   @RHF iter   6:  -644.66113295317018   -4.67981e-04   5.05781e-05 DIIS
   @RHF iter   7:  -644.66119439151180   -6.14383e-05   1.85349e-05 DIIS
   @RHF iter   8:  -644.66120188987043   -7.49836e-06   8.95737e-06 DIIS
   @RHF iter   9:  -644.66120335385790   -1.46399e-06   2.91521e-06 DIIS
   @RHF iter  10:  -644.66120357798218   -2.24124e-07   1.08220e-06 DIIS
   @RHF iter  11:  -644.66120360800437   -3.00222e-08   4.65120e-07 DIIS
   @RHF iter  12:  -644.66120361655089   -8.54652e-09   1.74909e-07 DIIS
   @RHF iter  13:  -644.66120361788217   -1.33127e-09   7.76560e-08 DIIS
   @RHF iter  14:  -644.66120361812841   -2.46246e-10   3.25665e-08 DIIS
   @RHF iter  15:  -644.66120361815479   -2.63753e-11   1.08717e-08 DIIS
   @RHF iter  16:  -644.66120361817548   -2.06910e-11   4.47397e-09 DIIS

  ==> Post-Iterations <==

	Orbital Energies (a.u.)
	-----------------------

	Doubly Occupied:                                                      

	   1A    -20.634613     2A    -20.630415     3A    -20.580857  
	   4A    -20.574312     5A    -11.424281     6A    -11.420483  
	   7A    -11.342480     8A    -11.283083     9A    -11.273437  
	  10A    -11.272932    11A    -11.264272    12A    -11.260188  
	  13A    -11.248615    14A     -1.503547    15A     -1.487763  
	  16A     -1.394259    17A     -1.382250    18A     -1.184816  
	  19A     -1.070224    20A     -1.057212    21A     -1.015148  
	  22A     -0.917616    23A     -0.869129    24A     -0.827521  
	  25A     -0.795866    26A     -0.730699    27A     -0.719728  
	  28A     -0.701428    29A     -0.694749    30A     -0.675906  
	  31A     -0.665700    32A     -0.648773    33A     -0.632991  
	  34A     -0.623574    35A     -0.596717    36A     -0.585867  
	  37A     -0.567908    38A     -0.561934    39A     -0.532455  
	  40A     -0.523451    41A     -0.520909    42A     -0.485509  
	  43A     -0.476209    44A     -0.466804    45A     -0.457473  
	  46A     -0.366409    47A     -0.353920  

	Virtual:                                                              

	  48A      0.072252    49A      0.121994    50A      0.156002  
	  51A      0.212772    52A      0.216467    53A      0.228242  
	  54A      0.250844    55A      0.279655    56A      0.289959  
	  57A      0.307917    58A      0.314701    59A      0.325030  
	  60A      0.341831    61A      0.366033    62A      0.401098  
	  63A      0.410224    64A      0.417533    65A      0.448171  
	  66A      0.465409    67A      0.494334    68A      0.497879  
	  69A      0.529759    70A      0.568224    71A      0.586310  
	  72A      0.707659    73A      0.711332    74A      0.733325  
	  75A      0.741480    76A      0.749654    77A      0.762391  
	  78A      0.779955    79A      0.802507    80A      0.809206  
	  81A      0.811343    82A      0.829251    83A      0.845001  
	  84A      0.852686    85A      0.858019    86A      0.865894  
	  87A      0.870915    88A      0.889594    89A      0.922186  
	  90A      0.928475    91A      0.951633    92A      0.966397  
	  93A      0.990444    94A      1.029680    95A      1.040426  
	  96A      1.079984    97A      1.098943    98A      1.116042  
	  99A      1.117688   100A      1.144574   101A      1.149851  
	 102A      1.168316   103A      1.194893   104A      1.205071  
	 105A      1.216938   106A      1.220974   107A      1.230817  
	 108A      1.249181   109A      1.254577   110A      1.269332  
	 111A      1.275232   112A      1.288221   113A      1.327626  
	 114A      1.337739   115A      1.366772   116A      1.371843  
	 117A      1.397766   118A      1.443903   119A      1.470747  
	 120A      1.481791   121A      1.509878   122A      1.555206  
	 123A      1.578367   124A      1.687325   125A      1.707111  
	 126A      1.740928   127A      1.758018   128A      1.858311  
	 129A      2.061446   130A      2.090369   131A      2.199586  
	 132A      2.379038   133A      2.416072  

	Final Occupation by Irrep:
	          A 
	DOCC [    47 ]

  Energy converged.

  @RHF Final Energy:  -644.66120361817548

   => Energetics <=

    Nuclear Repulsion Energy =            782.6611620093942747
    One-Electron Energy =               -2434.0358664066061465
    Two-Electron Energy =                1006.7135007790498094
    DFT Exchange-Correlation Energy =       0.0000000000000000
    Empirical Dispersion Energy =           0.0000000000000000
    Total Energy =                       -644.6612036181620624



Properties will be evaluated at   0.000000,   0.000000,   0.000000 Bohr
  ==> Properties <==


Properties computed using the SCF density density matrix
  Nuclear Dipole Moment: (a.u.)
     X:    -2.5164      Y:     3.9878      Z:    -1.6572

  Electronic Dipole Moment: (a.u.)
     X:     2.3406      Y:    -3.3614      Z:     0.7499

  Dipole Moment: (a.u.)
     X:    -0.1758      Y:     0.6264      Z:    -0.9073     Total:     1.1164

  Dipole Moment: (Debye)
     X:    -0.4469      Y:     1.5921      Z:    -2.3060     Total:     2.8376


  Saving occupied orbitals to File 180.

*** tstop() called on hartree at Mon Dec 23 13:19:30 2013
Module time:
	user time   =     200.87 seconds =       3.35 minutes
	system time =       4.92 seconds =       0.08 minutes
	total time  =        222 seconds =       3.70 minutes
Total time:
	user time   =     200.87 seconds =       3.35 minutes
	system time =       4.92 seconds =       0.08 minutes
	total time  =        222 seconds =       3.70 minutes

*** tstart() called on hartree
*** at Mon Dec 23 13:19:30 2013


         ------------------------------------------------------------
                                   SCF GRAD                          
                          Rob Parrish, Justin Turney,                
                       Andy Simmonett, and Alex Sokolov              
         ------------------------------------------------------------

  ==> Geometry <==

    Molecular point group: c1
    Full point group: C1

    Geometry (in Angstrom), charge = 0, multiplicity = 1:

       Center              X                  Y                   Z       
    ------------   -----------------  -----------------  -----------------
           C          2.243519388986    -0.436010072222     0.209929128352
           C          0.876029388986     1.757959927778    -0.835500871648
           C          2.927839388986     0.752689927778    -0.062010871648
           C          2.244469388986     1.847239927778    -0.587500871648
           C         -3.406830611014     0.761509927778    -0.141450871648
           C          0.864509388986    -0.545650072222    -0.036370871648
           C          0.189869388986     0.571759927778    -0.546210871648
           O          0.820059388986    -2.815840072222     0.746259128352
           O         -1.577390611014     1.161939927778     1.378369128352
           O         -1.061810611014    -1.954690072222    -0.057590871648
           C          0.239909388986    -1.859390072222     0.262239128352
           C         -1.964860611014     0.857829927778     0.257789128352
           O         -1.174540611014     0.557739927778    -0.845590871648
           H         -1.289390611014    -2.871690072222     0.204979128352
           H          2.796609388986    -1.282310072222     0.615499128352
           H          0.344209388986     2.612079927778    -1.245570871648
           H          3.994899388986     0.820679927778     0.136299128352
           H          2.777569388986     2.770229927778    -0.801390871648
           H         -3.629270611014    -0.250090072222    -0.490210871648
           H         -4.037670611014     0.975329927778     0.727059128352
           H         -3.625830611014     1.495179927778    -0.920660871648

  Nuclear repulsion =  782.661162009394275

  ==> Basis Set <==

  Basis Set: 6-31G
    Number of shells: 81
    Number of basis function: 133
    Number of Cartesian functions: 133
    Spherical Harmonics?: false
    Max angular momentum: 1

  ==> DirectJKGrad: Integral-Direct SCF Gradients <==

    Gradient:                    1
    J tasked:                  Yes
    K tasked:                  Yes
    wK tasked:                  No
    Integrals threads:           1
    Schwarz Cutoff:          0E+00


  -Total Gradient:
     Atom            X                  Y                   Z
    ------   -----------------  -----------------  -----------------
       1       -0.007525400589    -0.007271744071     0.000921339571
       2        0.000243849422     0.004170981615    -0.002667793742
       3       -0.001352065054     0.006517169626    -0.002730447499
       4        0.001137109880     0.000233959161     0.000213027676
       5        0.007994332749    -0.001820643431    -0.010072969692
       6       -0.007209304551     0.001021015559    -0.001367507402
       7       -0.024791915722    -0.007390233790     0.018826986913
       8        0.000095446545    -0.005358064387     0.002107085194
       9       -0.004262766954     0.010840251666     0.038608139968
      10        0.001769835773     0.038423729497    -0.015735677976
      11       -0.013182414775    -0.020218104245     0.003736958098
      12        0.031108812650    -0.000417655021    -0.009019718486
      13       -0.011228238404    -0.012078527940    -0.042601325390
      14        0.013073725311    -0.020750940842     0.011070283372
      15        0.010943764893    -0.008201904762     0.005167927898
      16       -0.002319130976     0.011355519899    -0.004363686936
      17        0.011343305348     0.001399460875     0.001932736235
      18        0.006037791426     0.009096570665    -0.001734625234
      19       -0.003307994127    -0.009448035738     0.001899864463
      20       -0.007005082921     0.001288865505     0.008013042318
      21       -0.001563659926     0.008608330170    -0.002203639348


*** tstop() called on hartree at Mon Dec 23 13:23:18 2013
Module time:
	user time   =     222.73 seconds =       3.71 minutes
	system time =       0.04 seconds =       0.00 minutes
	total time  =        228 seconds =       3.80 minutes
Total time:
	user time   =     423.60 seconds =       7.06 minutes
	system time =       4.96 seconds =       0.08 minutes
	total time  =        450 seconds =       7.50 minutes

			-----------------------------------------
			 OPTKING 2.0: for geometry optimizations 
			  - R.A. King,  Bethel University        
			-----------------------------------------

	Internal coordinates to be generated automatically.
	Detected frag with atoms:  1 2 3 4 5 6 7 8 9 10 11 12 13 14 15 16 17 18 19 20 21
	---Fragment 1 Bond Connectivity---
	 1 : 3 6 15
	 2 : 4 7 16
	 3 : 1 4 17
	 4 : 2 3 18
	 5 : 12 19 20 21
	 6 : 1 7 11
	 7 : 2 6 13
	 8 : 11
	 9 : 12
	 10 : 11 14
	 11 : 6 8 10
	 12 : 5 9 13
	 13 : 7 12
	 14 : 10
	 15 : 1
	 16 : 2
	 17 : 3
	 18 : 4
	 19 : 5
	 20 : 5
	 21 : 5

	---Fragment 1 Geometry and Gradient---
	 C           4.2396372190       -0.8239396277        0.3967085599
	 C           1.6554556295        3.3220628161       -1.5788678312
	 C           5.5328146063        1.4223778265       -0.1171835647
	 C           4.2414324588        3.4907775652       -1.1102157502
	 C          -6.4379768359        1.4390452110       -0.2673034087
	 C           1.6336859845       -1.0311292009       -0.0687309866
	 C           0.3588011462        1.0804696773       -1.0321889582
	 O           1.5496876579       -5.3211665705        1.4102253768
	 O          -2.9808362594        2.1957482464        2.6047401626
	 O          -2.0065312598       -3.6938289112       -0.1088309752
	 C           0.4533630419       -3.5137380107        0.4955601339
	 C          -3.7130484441        1.6210636321        0.4871508526
	 O          -2.2195600868        1.0539757169       -1.5979351679
	 H          -2.4365951331       -5.4267077750        0.3873544155
	 H           5.2848258458       -2.4232148539        1.1631247876
	 H           0.6504614776        4.9361157007       -2.3537878265
	 H           7.5492657736        1.5508603063        0.2575680247
	 H           5.2488454603        5.2349758886       -1.5144092728
	 H          -6.8583275169       -0.4726017451       -0.9263642948
	 H          -7.6300916696        1.8431064527        1.3739426350
	 H          -6.8518268591        2.8254805829       -1.7397969087
	            -0.0075254006       -0.0072717441        0.0009213396
	             0.0002438494        0.0041709816       -0.0026677937
	            -0.0013520651        0.0065171696       -0.0027304475
	             0.0011371099        0.0002339592        0.0002130277
	             0.0079943327       -0.0018206434       -0.0100729697
	            -0.0072093046        0.0010210156       -0.0013675074
	            -0.0247919157       -0.0073902338        0.0188269869
	             0.0000954465       -0.0053580644        0.0021070852
	            -0.0042627670        0.0108402517        0.0386081400
	             0.0017698358        0.0384237295       -0.0157356780
	            -0.0131824148       -0.0202181042        0.0037369581
	             0.0311088126       -0.0004176550       -0.0090197185
	            -0.0112282384       -0.0120785279       -0.0426013254
	             0.0130737253       -0.0207509408        0.0110702834
	             0.0109437649       -0.0082019048        0.0051679279
	            -0.0023191310        0.0113555199       -0.0043636869
	             0.0113433053        0.0013994609        0.0019327362
	             0.0060377914        0.0090965707       -0.0017346252
	            -0.0033079941       -0.0094480357        0.0018998645
	            -0.0070050829        0.0012888655        0.0080130423
	            -0.0015636599        0.0086083302       -0.0022036393

	Previous optimization step data not found.  Starting new optimization.

	---Fragment 1 Intrafragment Coordinates---
	 - Coordinate -           - BOHR/RAD -       - ANG/DEG -
	 R(1,3)           =         2.642411	       1.398304
	 R(1,6)           =         2.655286	       1.405117
	 R(1,15)          =         2.058518	       1.089321
	 R(2,4)           =         2.633510	       1.393594
	 R(2,7)           =         2.646679	       1.400562
	 R(2,16)          =         2.053212	       1.086513
	 R(3,4)           =         2.632880	       1.393260
	 R(3,17)          =         2.054999	       1.087459
	 R(4,18)          =         2.054381	       1.087132
	 R(5,12)          =         2.833296	       1.499316
	 R(5,19)          =         2.065297	       1.092908
	 R(5,20)          =         2.068355	       1.094526
	 R(5,21)          =         2.064391	       1.092429
	 R(6,7)           =         2.648100	       1.401314
	 R(6,11)          =         2.806231	       1.484994
	 R(7,13)          =         2.639833	       1.396939
	 R(8,11)          =         2.303332	       1.218871
	 R(9,12)          =         2.313132	       1.224057
	 R(10,11)         =         2.539449	       1.343819
	 R(10,14)         =         1.853112	       0.980625
	 R(12,13)         =         2.626724	       1.390003
	 B(1,3,4)         =         2.095729	     120.076411
	 B(1,3,17)        =         2.091969	     119.861002
	 B(1,6,7)         =         2.064674	     118.297081
	 B(1,6,11)        =         2.033731	     116.524206
	 B(2,4,3)         =         2.092571	     119.895507
	 B(2,4,18)        =         2.095436	     120.059644
	 B(2,7,6)         =         2.111387	     120.973589
	 B(2,7,13)        =         2.029452	     116.279011
	 B(3,1,6)         =         2.108940	     120.833374
	 B(3,1,15)        =         2.076442	     118.971384
	 B(3,4,18)        =         2.095175	     120.044678
	 B(4,2,7)         =         2.092752	     119.905865
	 B(4,2,16)        =         2.091444	     119.830892
	 B(4,3,17)        =         2.095487	     120.062539
	 B(5,12,9)        =         2.170224	     124.344697
	 B(5,12,13)       =         1.898199	     108.758793
	 B(6,1,15)        =         2.097800	     120.195084
	 B(6,7,13)        =         2.141463	     122.696784
	 B(6,11,8)        =         2.182010	     125.019944
	 B(6,11,10)       =         2.006791	     114.980626
	 B(7,2,16)        =         2.098960	     120.261552
	 B(7,6,11)        =         2.184756	     125.177326
	 B(7,13,12)       =         1.963890	     112.522616
	 B(8,11,10)       =         2.094308	     119.995020
	 B(9,12,13)       =         2.214735	     126.894958
	 B(11,10,14)      =         1.800199	     103.143790
	 B(12,5,19)       =         1.917907	     109.888003
	 B(12,5,20)       =         1.907597	     109.297255
	 B(12,5,21)       =         1.917279	     109.852012
	 B(19,5,20)       =         1.893077	     108.465294
	 B(19,5,21)       =         1.931799	     110.683932
	 B(20,5,21)       =         1.895734	     108.617559
	 D(1,3,4,2)       =         0.005679	       0.325382
	 D(1,3,4,18)      =        -3.138539	    -179.825067
	 D(1,6,7,2)       =         0.027616	       1.582259
	 D(1,6,7,13)      =         3.122352	     178.897573
	 D(1,6,11,8)      =         0.051550	       2.953598
	 D(1,6,11,10)     =        -3.076642	    -176.278604
	 D(2,4,3,17)      =        -3.137308	    -179.754490
	 D(2,7,6,11)      =        -3.106220	    -177.973286
	 D(2,7,13,12)     =        -1.679764	     -96.243407
	 D(3,1,6,7)       =        -0.013219	      -0.757408
	 D(3,1,6,11)      =         3.121287	     178.836572
	 D(3,4,2,7)       =         0.008533	       0.488925
	 D(3,4,2,16)      =        -3.141294	    -179.982896
	 D(4,2,7,6)       =        -0.025598	      -1.466631
	 D(4,2,7,13)      =        -3.123215	    -178.947054
	 D(4,3,1,6)       =        -0.003231	      -0.185136
	 D(4,3,1,15)      =         3.135848	     179.670848
	 D(5,12,13,7)     =        -3.099502	    -177.588406
	 D(6,1,3,17)      =         3.139753	     179.894574
	 D(6,7,2,16)      =         3.124266	     179.007246
	 D(6,7,13,12)     =         1.506633	      86.323697
	 D(6,11,10,14)    =         3.139200	     179.862928
	 D(7,2,4,18)      =        -3.130433	    -179.360604
	 D(7,6,1,15)      =         3.130918	     179.388365
	 D(7,6,11,8)      =        -3.097676	    -177.483781
	 D(7,6,11,10)     =         0.057317	       3.284017
	 D(7,13,12,9)     =         0.049777	       2.851994
	 D(8,11,10,14)    =         0.010279	       0.588954
	 D(9,12,5,19)     =        -2.103932	    -120.546396
	 D(9,12,5,20)     =        -0.028447	      -1.629883
	 D(9,12,5,21)     =         2.049906	     117.450960
	 D(11,6,1,15)     =        -0.017761	      -1.017655
	 D(11,6,7,13)     =        -0.011484	      -0.657972
	 D(13,7,2,16)     =         0.026648	       1.526823
	 D(13,12,5,19)    =         1.045106	      59.880179
	 D(13,12,5,20)    =         3.120591	     178.796691
	 D(13,12,5,21)    =        -1.084242	     -62.122466
	 D(15,1,3,17)     =        -0.004354	      -0.249442
	 D(16,2,4,18)     =         0.002925	       0.167575
	 D(17,3,4,18)     =         0.001659	       0.095061

	Current energy   :      -644.6612036182

	Generating empirical Hessian (Schlegel '84) for each fragment.
	Going to follow RFO solution 1.
	Projected energy change by RFO approximation:        -0.0150202375

	Back-transformation to cartesian coordinates...
	Successfully converged to displaced geometry.

	---Internal Coordinate Step in ANG or DEG, aJ/ANG or AJ/DEG ---
	 ----------------------------------------------------------------------
	 Coordinate             Previous        Force       Change         New 
	 ----------             --------       ------       ------       ------
	 R(1,3)          =      1.398304    -0.141754    -0.018519     1.379784
	 R(1,6)          =      1.405117    -0.095397    -0.012859     1.392257
	 R(1,15)         =      1.089321    -0.114129    -0.019344     1.069976
	 R(2,4)          =      1.393594    -0.077404    -0.009966     1.383628
	 R(2,7)          =      1.400562    -0.163683    -0.021762     1.378801
	 R(2,16)         =      1.086513    -0.096465    -0.016210     1.070303
	 R(3,4)          =      1.393260    -0.061487    -0.007804     1.385457
	 R(3,17)         =      1.087459    -0.095326    -0.016065     1.071393
	 R(4,18)         =      1.087132    -0.090833    -0.015293     1.071839
	 R(5,12)         =      1.499316    -0.036674    -0.006644     1.492672
	 R(5,19)         =      1.092908    -0.072601    -0.012441     1.080467
	 R(5,20)         =      1.094526    -0.087723    -0.015106     1.079420
	 R(5,21)         =      1.092429    -0.063163    -0.010808     1.081621
	 R(6,7)          =      1.401314    -0.080092    -0.010764     1.390550
	 R(6,11)         =      1.484994    -0.053470    -0.009280     1.475714
	 R(7,13)         =      1.396939     0.067033     0.008763     1.405702
	 R(8,11)         =      1.218871    -0.041907    -0.002722     1.216149
	 R(9,12)         =      1.224057    -0.302264    -0.020095     1.203962
	 R(10,11)        =      1.343819     0.119638     0.012945     1.356764
	 R(10,14)        =      0.980625    -0.159293    -0.018854     0.961771
	 R(12,13)        =      1.390003    -0.086576    -0.011050     1.378952
	 B(1,3,4)        =    120.076411    -0.000217    -0.603945   119.472466
	 B(1,3,17)       =    119.861002     0.000054     0.086074   119.947076
	 B(1,6,7)        =    118.297081     0.000031     0.048586   118.345668
	 B(1,6,11)       =    116.524206    -0.000202    -0.528404   115.995802
	 B(2,4,3)        =    119.895507     0.000048     0.184679   120.080186
	 B(2,4,18)       =    120.059644    -0.000086    -0.335857   119.723788
	 B(2,7,6)        =    120.973589    -0.000047    -0.178826   120.794764
	 B(2,7,13)       =    116.279011     0.000196     0.541608   116.820619
	 B(3,1,6)        =    120.833374     0.000134     0.415171   121.248545
	 B(3,1,15)       =    118.971384     0.000299     1.242639   120.214023
	 B(3,4,18)       =    120.044678     0.000037     0.151199   120.195877
	 B(4,2,7)        =    119.905865     0.000053     0.149446   120.055311
	 B(4,2,16)       =    119.830892     0.000289     1.174589   121.005481
	 B(4,3,17)       =    120.062539     0.000163     0.517798   120.580337
	 B(5,12,9)       =    124.344697     0.000952     2.559029   126.903725
	 B(5,12,13)      =    108.758793     0.001043     2.803736   111.562529
	 B(6,1,15)       =    120.195084    -0.000433    -1.658297   118.536788
	 B(6,7,13)       =    122.696784    -0.000150    -0.387457   122.309327
	 B(6,11,8)       =    125.019944    -0.000621    -1.674367   123.345577
	 B(6,11,10)      =    114.980626     0.000770     2.063293   117.043920
	 B(7,2,16)       =    120.261552    -0.000342    -1.323059   118.938493
	 B(7,6,11)       =    125.177326     0.000172     0.478108   125.655434
	 B(7,13,12)      =    112.522616     0.003972    10.680930   123.203546
	 B(8,11,10)      =    119.995020    -0.000148    -0.402940   119.592080
	 B(9,12,13)      =    126.894958    -0.001994    -5.362541   121.532417
	 B(11,10,14)     =    103.143790     0.002639    10.455596   113.599386
	 B(12,5,19)      =    109.888003    -0.000095    -0.578107   109.309896
	 B(12,5,20)      =    109.297255    -0.000011     0.353448   109.650703
	 B(12,5,21)      =    109.852012     0.000082     0.107926   109.959938
	 B(19,5,20)      =    108.465294     0.000206     1.233056   109.698349
	 B(19,5,21)      =    110.683932    -0.000284    -1.905060   108.778872
	 B(20,5,21)      =    108.617559     0.000108     0.809367   109.426926
	 D(1,3,4,2)      =      0.325382    -0.000004    -0.276475     0.048906
	 D(1,3,4,18)     =   -179.825067     0.000000     0.015186  -179.809881
	 D(1,6,7,2)      =      1.582259    -0.000015    -0.958579     0.623679
	 D(1,6,7,13)     =    178.897573    -0.000022    -1.530364   177.367209
	 D(1,6,11,8)     =      2.953598    -0.000018    -1.521633     1.431965
	 D(1,6,11,10)    =   -176.278604    -0.000046    -3.860180  -180.138783
	 D(2,4,3,17)     =   -179.754490    -0.000001    -0.069804  -179.824294
	 D(2,7,6,11)     =   -177.973286    -0.000030    -2.070841  -180.044128
	 D(2,7,13,12)    =    -96.243407    -0.000062    -5.678576  -101.921983
	 D(3,1,6,7)      =     -0.757408     0.000008     0.488181    -0.269227
	 D(3,1,6,11)     =    178.836572     0.000022     1.497895   180.334467
	 D(3,4,2,7)      =      0.488925    -0.000002    -0.186468     0.302457
	 D(3,4,2,16)     =   -179.982896     0.000009     0.596218  -179.386678
	 D(4,2,7,6)      =     -1.466631     0.000013     0.819954    -0.646677
	 D(4,2,7,13)     =   -178.947054     0.000021     1.384266  -177.562789
	 D(4,3,1,6)      =     -0.185136     0.000002     0.122991    -0.062146
	 D(4,3,1,15)     =    179.670848     0.000008     0.563395   180.234243
	 D(5,12,13,7)    =   -177.588406    -0.000005    -0.523812  -178.112218
	 D(6,1,3,17)     =    179.894574    -0.000001    -0.082704   179.811870
	 D(6,7,2,16)     =    179.007246     0.000000     0.041614   179.048860
	 D(6,7,13,12)    =     86.323697    -0.000054    -5.111272    81.212425
	 D(6,11,10,14)   =    179.862928     0.000010     0.918172   180.781100
	 D(7,2,4,18)     =   -179.360604    -0.000007    -0.477483  -179.838087
	 D(7,6,1,15)     =    179.388365     0.000001     0.050864   179.439229
	 D(7,6,11,8)     =   -177.483781    -0.000003    -0.430361  -177.914142
	 D(7,6,11,10)    =      3.284017    -0.000031    -2.768908     0.515109
	 D(7,13,12,9)    =      2.851994    -0.000008    -0.572312     2.279683
	 D(8,11,10,14)   =      0.588954    -0.000015    -1.316823    -0.727869
	 D(9,12,5,19)    =   -120.546396    -0.000041    -1.240919  -121.787314
	 D(9,12,5,20)    =     -1.629883     0.000002     0.131799    -1.498085
	 D(9,12,5,21)    =    117.450960     0.000042     1.410706   118.861666
	 D(11,6,1,15)    =     -1.017655     0.000015     1.060578     0.042923
	 D(11,6,7,13)    =     -0.657972    -0.000037    -2.642626    -3.300598
	 D(13,7,2,16)    =      1.526823     0.000009     0.605925     2.132748
	 D(13,12,5,19)   =     59.880179    -0.000041    -1.249765    58.630414
	 D(13,12,5,20)   =    178.796691     0.000002     0.122953   178.919644
	 D(13,12,5,21)   =    -62.122466     0.000042     1.401860   -60.720606
	 D(15,1,3,17)    =     -0.249442     0.000005     0.357701     0.108259
	 D(16,2,4,18)    =      0.167575     0.000004     0.305204     0.472779
	 D(17,3,4,18)    =      0.095061     0.000003     0.221857     0.316918
	 ----------------------------------------------------------------------

  ==> Convergence Check <==

  Measures of convergence in internal coordinates in au.
  Criteria marked as inactive (o), active & met (*), and active & unmet ( ).
  --------------------------------------------------------------------------------------------- ~
   Step     Total Energy     Delta E     MAX Force     RMS Force      MAX Disp      RMS Disp    ~
  --------------------------------------------------------------------------------------------- ~
    Convergence Criteria    1.00e-06 *    3.00e-04 *             o    1.20e-03 *             o  ~
  --------------------------------------------------------------------------------------------- ~
      1    -644.66120362   -6.45e+02      5.22e-02      1.01e-02 o    1.86e-01      3.86e-02 o  ~
  ---------------------------------------------------------------------------------------------

	Writing optimization data to binary file.
	Structure for next step:
	Cartesian Geometry (in Angstrom)
	    C     2.2912271977  -0.4410028093   0.1222971316
	    C     0.9303347553   1.7913086727  -0.7553585618
	    C     2.9895512022   0.7159009706  -0.1564890663
	    C     2.3042276574   1.8362044127  -0.5977850613
	    C    -3.4731488482   0.7255756757  -0.2308238220
	    C     0.9088025452  -0.5046564439  -0.0301207258
	    C     0.2397167392   0.6331790900  -0.4674798504
	    O     0.9023076655  -2.7548997813   0.7223058129
	    O    -1.7520848705   0.9622470556   1.4477941459
	    O    -1.0674857326  -1.8807037517   0.1698936153
	    C     0.2795698732  -1.7959667983   0.3079830629
	    C    -2.0803978604   0.7939430816   0.3017539608
	    O    -1.1462575815   0.6463212855  -0.7017893155
	    H    -1.4263961879  -2.7388017441   0.4145457710
	    H     2.8080740401  -1.3120023523   0.4673747340
	    H     0.3872534550   2.6449172955  -1.1045912223
	    H     4.0529945346   0.7425963194  -0.0289758713
	    H     2.8354559756   2.7400665613  -0.8206485289
	    H    -3.6201489010  -0.2234495856  -0.7259512586
	    H    -4.1775172708   0.8253643164   0.5809981887
	    H    -3.6341813299   1.5203573891  -0.9465715988
			--------------------------
			 OPTKING Finished Execution 
			--------------------------

    Structure for next step:
    Molecular point group: c1
    Full point group: C1

    Geometry (in Angstrom), charge = 0, multiplicity = 1:

    C            2.286329983673    -0.445827013055     0.089249825998
    C            0.925437645275     1.786484298562    -0.788405800344
    C            2.984653934885     0.711076678517    -0.189536350582
    C            2.299330442440     1.831380035107    -0.630832311915
    C           -3.478045621999     0.720751382919    -0.263871100579
    C            0.903905436762    -0.509480642748    -0.063168019714
    C            0.234819681925     0.628354804251    -0.500527110893
    O            0.897410557534    -2.759723808347     0.689258461515
    O           -1.756981775703     0.957422744706     1.414746739099
    O           -1.072382690110    -1.885527845476     0.136846306051
    C            0.274672812874    -1.800790898553     0.274935743193
    C           -2.085294740593     0.789118783590     0.268706641546
    O           -1.151154533002     0.641496998773    -0.734836558142
    H           -1.431293118010    -2.743625772369     0.381498443085
    H            2.803176786677    -1.316826489452     0.434327402045
    H            0.382356386401     2.640092856136    -1.137638434202
    H            4.048097186089     0.737772025285    -0.062023165295
    H            2.830558720041     2.735242114640    -0.853695762428
    H           -3.625045663533    -0.228273805969    -0.758998499369
    H           -4.182413990833     0.820540016003     0.547950848119
    H           -3.639078091400     1.515533035610    -0.979618822726


*** tstart() called on hartree
*** at Mon Dec 23 13:23:18 2013

	There are an even number of electrons - assuming singlet.
	Specify the multiplicity with the MULTP option in the
	input if this is incorrect


         ---------------------------------------------------------
                                   SCF
            by Justin Turney, Rob Parrish, and Andy Simmonett
                              RHF Reference
                        1 Threads,    256 MiB Core
         ---------------------------------------------------------

  ==> Geometry <==

    Molecular point group: c1
    Full point group: C1

    Geometry (in Angstrom), charge = 0, multiplicity = 1:

       Center              X                  Y                   Z       
    ------------   -----------------  -----------------  -----------------
           C          2.286329983673    -0.445827013055     0.089249825998
           C          0.925437645275     1.786484298562    -0.788405800344
           C          2.984653934885     0.711076678517    -0.189536350582
           C          2.299330442440     1.831380035107    -0.630832311915
           C         -3.478045621999     0.720751382919    -0.263871100579
           C          0.903905436762    -0.509480642748    -0.063168019714
           C          0.234819681925     0.628354804251    -0.500527110893
           O          0.897410557534    -2.759723808347     0.689258461515
           O         -1.756981775703     0.957422744706     1.414746739099
           O         -1.072382690110    -1.885527845476     0.136846306051
           C          0.274672812874    -1.800790898553     0.274935743193
           C         -2.085294740593     0.789118783590     0.268706641546
           O         -1.151154533002     0.641496998773    -0.734836558142
           H         -1.431293118010    -2.743625772369     0.381498443085
           H          2.803176786677    -1.316826489452     0.434327402045
           H          0.382356386401     2.640092856136    -1.137638434202
           H          4.048097186089     0.737772025285    -0.062023165295
           H          2.830558720041     2.735242114640    -0.853695762428
           H         -3.625045663533    -0.228273805969    -0.758998499369
           H         -4.182413990833     0.820540016003     0.547950848119
           H         -3.639078091400     1.515533035610    -0.979618822726

  Running in c1 symmetry.

  Nuclear repulsion =  783.286849580543162

  Charge       = 0
  Multiplicity = 1
  Electrons    = 94
  Nalpha       = 47
  Nbeta        = 47

  ==> Algorithm <==

  SCF Algorithm Type is OUT_OF_CORE.
  DIIS enabled.
  MOM disabled.
  Fractional occupation disabled.
  Guess Type is READ.
  Energy threshold   = 1.00e-08
  Density threshold  = 1.00e-08
  Integral threshold = 0.00e+00

  ==> Primary Basis <==

  Basis Set: 6-31G
    Number of shells: 81
    Number of basis function: 133
    Number of Cartesian functions: 133
    Spherical Harmonics?: false
    Max angular momentum: 1

  ==> Pre-Iterations <==

   -------------------------------------------------------
    Irrep   Nso     Nmo     Nalpha   Nbeta   Ndocc  Nsocc
   -------------------------------------------------------
     A        133     133       0       0       0       0
   -------------------------------------------------------
    Total     133     133      47      47      47       0
   -------------------------------------------------------

 OEINTS: Wrapper to libmints.
   by Justin Turney

   Calculation information:
      Number of atoms:                  21
      Number of AO shells:              81
      Number of SO shells:              81
      Number of primitives:            214
      Number of atomic orbitals:       133
      Number of basis functions:       133

      Number of irreps:                  1
      Number of functions per irrep: [ 133 ]

      Overlap, kinetic, potential, dipole, and quadrupole integrals
        stored in file 35.

  ==> Integral Setup <==

 MINTS: Wrapper to libmints.
   by Justin Turney

   Calculation information:
      Number of atoms:                  21
      Number of AO shells:              81
      Number of SO shells:              81
      Number of primitives:            214
      Number of atomic orbitals:       133
      Number of basis functions:       133

      Number of irreps:                  1
      Integral cutoff                 0.00e+00
      Number of functions per irrep: [ 133 ]

      Overlap, kinetic, potential, dipole, and quadrupole integrals
        stored in file 35.

      Computing two-electron integrals...done
      Computed 39700387 non-zero two-electron integrals.
        Stored in file 33.

  ==> DiskJK: Disk-Based J/K Matrices <==

    J tasked:                  Yes
    K tasked:                  Yes
    wK tasked:                  No
    Memory (MB):               183
    Schwarz Cutoff:          1E-12

  Minimum eigenvalue in the overlap matrix is 4.8735813221E-04.
  Using Symmetric Orthogonalization.
  SCF Guess: Projection.

  Using orbitals from previous SCF, no projection.
  ==> Iterations <==

                        Total Energy        Delta E     RMS |[F,P]|

   @RHF iter   0:  -644.79638974360421   -6.44796e+02   3.82640e-03 
   @RHF iter   1:  -644.66836462238064    1.28025e-01   5.58309e-04 
   @RHF iter   2:  -644.67345401341015   -5.08939e-03   2.51998e-04 DIIS
   @RHF iter   3:  -644.67424233506347   -7.88322e-04   1.32325e-04 DIIS
   @RHF iter   4:  -644.67449484595215   -2.52511e-04   3.30783e-05 DIIS
   @RHF iter   5:  -644.67451268702155   -1.78411e-05   1.56160e-05 DIIS
   @RHF iter   6:  -644.67451942420087   -6.73718e-06   5.50539e-06 DIIS
   @RHF iter   7:  -644.67452045259063   -1.02839e-06   2.19107e-06 DIIS
   @RHF iter   8:  -644.67452066484009   -2.12249e-07   8.32052e-07 DIIS
   @RHF iter   9:  -644.67452069154081   -2.67007e-08   3.48948e-07 DIIS
   @RHF iter  10:  -644.67452069617218   -4.63137e-09   1.25211e-07 DIIS
   @RHF iter  11:  -644.67452069664648   -4.74301e-10   5.93051e-08 DIIS
   @RHF iter  12:  -644.67452069671583   -6.93490e-11   1.83803e-08 DIIS
   @RHF iter  13:  -644.67452069672379   -7.95808e-12   7.74752e-09 DIIS

  ==> Post-Iterations <==

	Orbital Energies (a.u.)
	-----------------------

	Doubly Occupied:                                                      

	   1A    -20.619800     2A    -20.617830     3A    -20.569999  
	   4A    -20.568568     5A    -11.422208     6A    -11.415434  
	   7A    -11.340893     8A    -11.277584     9A    -11.268421  
	  10A    -11.265484    11A    -11.257174    12A    -11.254181  
	  13A    -11.247885    14A     -1.490925    15A     -1.481865  
	  16A     -1.387632    17A     -1.377324    18A     -1.193080  
	  19A     -1.073073    20A     -1.062937    21A     -1.023255  
	  22A     -0.922631    23A     -0.875341    24A     -0.834474  
	  25A     -0.802302    26A     -0.734696    27A     -0.713707  
	  28A     -0.698813    29A     -0.689950    30A     -0.672835  
	  31A     -0.666678    32A     -0.643326    33A     -0.636037  
	  34A     -0.627015    35A     -0.588809    36A     -0.583608  
	  37A     -0.577134    38A     -0.561464    39A     -0.538191  
	  40A     -0.523442    41A     -0.519443    42A     -0.483452  
	  43A     -0.469627    44A     -0.462426    45A     -0.454618  
	  46A     -0.366012    47A     -0.355474  

	Virtual:                                                              

	  48A      0.075035    49A      0.128108    50A      0.168191  
	  51A      0.211934    52A      0.220559    53A      0.232260  
	  54A      0.252855    55A      0.283283    56A      0.292840  
	  57A      0.313344    58A      0.319169    59A      0.329811  
	  60A      0.347581    61A      0.370677    62A      0.404788  
	  63A      0.421785    64A      0.427524    65A      0.459279  
	  66A      0.484873    67A      0.496061    68A      0.500058  
	  69A      0.538408    70A      0.577237    71A      0.595377  
	  72A      0.706894    73A      0.714443    74A      0.736006  
	  75A      0.748169    76A      0.753108    77A      0.758336  
	  78A      0.788049    79A      0.797373    80A      0.810210  
	  81A      0.815684    82A      0.838601    83A      0.845393  
	  84A      0.853993    85A      0.861835    86A      0.869401  
	  87A      0.874527    88A      0.890916    89A      0.923629  
	  90A      0.943945    91A      0.952029    92A      0.961895  
	  93A      0.991441    94A      1.027618    95A      1.047535  
	  96A      1.095962    97A      1.115537    98A      1.129616  
	  99A      1.139752   100A      1.147626   101A      1.156729  
	 102A      1.178500   103A      1.205424   104A      1.213211  
	 105A      1.223022   106A      1.228382   107A      1.233937  
	 108A      1.259664   109A      1.265761   110A      1.278099  
	 111A      1.290985   112A      1.304953   113A      1.339695  
	 114A      1.344142   115A      1.362722   116A      1.383851  
	 117A      1.427773   118A      1.441469   119A      1.481888  
	 120A      1.492449   121A      1.538961   122A      1.562898  
	 123A      1.594322   124A      1.707084   125A      1.725372  
	 126A      1.763156   127A      1.805452   128A      1.868979  
	 129A      2.072123   130A      2.118808   131A      2.217269  
	 132A      2.370363   133A      2.416638  

	Final Occupation by Irrep:
	          A 
	DOCC [    47 ]

  Energy converged.

  @RHF Final Energy:  -644.67452069672379

   => Energetics <=

    Nuclear Repulsion Energy =            783.2868495805431621
    One-Electron Energy =               -2435.4886266514249655
    Two-Electron Energy =                1007.5272563741566501
    DFT Exchange-Correlation Energy =       0.0000000000000000
    Empirical Dispersion Energy =           0.0000000000000000
    Total Energy =                       -644.6745206967250397



Properties will be evaluated at   0.000000,   0.000000,   0.000000 Bohr
  ==> Properties <==


Properties computed using the SCF density density matrix
  Nuclear Dipole Moment: (a.u.)
     X:    -2.6525      Y:     3.8857      Z:    -2.2691

  Electronic Dipole Moment: (a.u.)
     X:     2.3707      Y:    -3.2177      Z:     1.2649

  Dipole Moment: (a.u.)
     X:    -0.2818      Y:     0.6680      Z:    -1.0043     Total:     1.2386

  Dipole Moment: (Debye)
     X:    -0.7164      Y:     1.6979      Z:    -2.5526     Total:     3.1483


  Saving occupied orbitals to File 180.

*** tstop() called on hartree at Mon Dec 23 13:26:45 2013
Module time:
	user time   =     189.64 seconds =       3.16 minutes
	system time =       4.17 seconds =       0.07 minutes
	total time  =        207 seconds =       3.45 minutes
Total time:
	user time   =     613.31 seconds =      10.22 minutes
	system time =       9.13 seconds =       0.15 minutes
	total time  =        657 seconds =      10.95 minutes

*** tstart() called on hartree
*** at Mon Dec 23 13:26:45 2013


         ------------------------------------------------------------
                                   SCF GRAD                          
                          Rob Parrish, Justin Turney,                
                       Andy Simmonett, and Alex Sokolov              
         ------------------------------------------------------------

  ==> Geometry <==

    Molecular point group: c1
    Full point group: C1

    Geometry (in Angstrom), charge = 0, multiplicity = 1:

       Center              X                  Y                   Z       
    ------------   -----------------  -----------------  -----------------
           C          2.286329983673    -0.445827013055     0.089249825998
           C          0.925437645275     1.786484298562    -0.788405800344
           C          2.984653934885     0.711076678517    -0.189536350582
           C          2.299330442440     1.831380035107    -0.630832311915
           C         -3.478045621999     0.720751382919    -0.263871100579
           C          0.903905436762    -0.509480642748    -0.063168019714
           C          0.234819681925     0.628354804251    -0.500527110893
           O          0.897410557534    -2.759723808347     0.689258461515
           O         -1.756981775703     0.957422744706     1.414746739099
           O         -1.072382690110    -1.885527845476     0.136846306051
           C          0.274672812874    -1.800790898553     0.274935743193
           C         -2.085294740593     0.789118783590     0.268706641546
           O         -1.151154533002     0.641496998773    -0.734836558142
           H         -1.431293118010    -2.743625772369     0.381498443085
           H          2.803176786677    -1.316826489452     0.434327402045
           H          0.382356386401     2.640092856136    -1.137638434202
           H          4.048097186089     0.737772025285    -0.062023165295
           H          2.830558720041     2.735242114640    -0.853695762428
           H         -3.625045663533    -0.228273805969    -0.758998499369
           H         -4.182413990833     0.820540016003     0.547950848119
           H         -3.639078091400     1.515533035610    -0.979618822726

  Nuclear repulsion =  783.286849580543162

  ==> Basis Set <==

  Basis Set: 6-31G
    Number of shells: 81
    Number of basis function: 133
    Number of Cartesian functions: 133
    Spherical Harmonics?: false
    Max angular momentum: 1

  ==> DirectJKGrad: Integral-Direct SCF Gradients <==

    Gradient:                    1
    J tasked:                  Yes
    K tasked:                  Yes
    wK tasked:                  No
    Integrals threads:           1
    Schwarz Cutoff:          0E+00


  -Total Gradient:
     Atom            X                  Y                   Z
    ------   -----------------  -----------------  -----------------
       1       -0.002939537849     0.000748086891    -0.000658291538
       2        0.000585490053    -0.003643519424     0.001220288626
       3       -0.001349966612    -0.000465412406    -0.000313873675
       4       -0.000771167057    -0.000864831826     0.000983582382
       5       -0.002552927296    -0.000216051777    -0.002109352436
       6        0.005005623946     0.002935773456    -0.000030601612
       7        0.012956234936     0.001606099958     0.000462137761
       8       -0.001529299991     0.000291344956     0.002201100462
       9        0.001484560848    -0.001351669057    -0.002219972716
      10       -0.001276269350     0.000422066781     0.001225484625
      11        0.008008919744     0.006156715136    -0.006433669084
      12       -0.007214596390     0.004144988497     0.003615646990
      13       -0.003335832709    -0.003994613257    -0.001827285489
      14       -0.006527838534    -0.006543668516     0.000935448965
      15        0.000900135230     0.000989176382     0.000030598055
      16        0.000669817999    -0.000025344590    -0.000266485214
      17       -0.000143421325    -0.000184220629     0.000111003037
      18        0.000131588340    -0.000513787803     0.000090351374
      19       -0.000356915959    -0.000295907699     0.001614353165
      20       -0.001469655819    -0.000161926207    -0.000015577902
      21       -0.000274942196     0.000966701150     0.001385114221


*** tstop() called on hartree at Mon Dec 23 13:30:36 2013
Module time:
	user time   =     226.06 seconds =       3.77 minutes
	system time =       0.03 seconds =       0.00 minutes
	total time  =        231 seconds =       3.85 minutes
Total time:
	user time   =     839.37 seconds =      13.99 minutes
	system time =       9.16 seconds =       0.15 minutes
	total time  =        888 seconds =      14.80 minutes

			-----------------------------------------
			 OPTKING 2.0: for geometry optimizations 
			  - R.A. King,  Bethel University        
			-----------------------------------------

	Previous internal coordinate definitions found.
	---Fragment 1 Geometry and Gradient---
	 C           4.3205375185       -0.8424909573        0.1686577285
	 C           1.7488237026        3.3759660650       -1.4898710442
	 C           5.6401785384        1.3437401819       -0.3581717948
	 C           4.3451048252        3.4608067116       -1.1921003053
	 C          -6.5725537033        1.3620227236       -0.4986441145
	 C           1.7081337255       -0.9627788848       -0.1193702576
	 C           0.4437448894        1.1874184943       -0.9458591617
	 O           1.6958601825       -5.2151222002        1.3025097270
	 O          -3.3202143766        1.8092667809        2.6734838843
	 O          -2.0265095940       -3.5631312439        0.2586020407
	 C           0.5190563925       -3.4030016209        0.5195532588
	 C          -3.9406359661        1.4912183873        0.5077819626
	 O          -2.1753668040        1.2122536427       -1.3886398473
	 H          -2.7047520089       -5.1847013209        0.7209275776
	 H           5.2972364289       -2.4884414296        0.8207598419
	 H           0.7225488555        4.9890524635       -2.1498250789
	 H           7.6497950410        1.3941870763       -0.1172067963
	 H           5.3489807839        5.1688585038       -1.6132511918
	 H          -6.8503435233       -0.4313749766       -1.4342992991
	 H          -7.9036170170        1.5505959113        1.0354770372
	 H          -6.8768609689        2.8639423826       -1.8512112896
	            -0.0029395378        0.0007480869       -0.0006582915
	             0.0005854901       -0.0036435194        0.0012202886
	            -0.0013499666       -0.0004654124       -0.0003138737
	            -0.0007711671       -0.0008648318        0.0009835824
	            -0.0025529273       -0.0002160518       -0.0021093524
	             0.0050056239        0.0029357735       -0.0000306016
	             0.0129562349        0.0016061000        0.0004621378
	            -0.0015293000        0.0002913450        0.0022011005
	             0.0014845608       -0.0013516691       -0.0022199727
	            -0.0012762693        0.0004220668        0.0012254846
	             0.0080089197        0.0061567151       -0.0064336691
	            -0.0072145964        0.0041449885        0.0036156470
	            -0.0033358327       -0.0039946133       -0.0018272855
	            -0.0065278385       -0.0065436685        0.0009354490
	             0.0009001352        0.0009891764        0.0000305981
	             0.0006698180       -0.0000253446       -0.0002664852
	            -0.0001434213       -0.0001842206        0.0001110030
	             0.0001315883       -0.0005137878        0.0000903514
	            -0.0003569160       -0.0002959077        0.0016143532
	            -0.0014696558       -0.0001619262       -0.0000155779
	            -0.0002749422        0.0009667012        0.0013851142

	---Fragment 1 Intrafragment Coordinates---
	 - Coordinate -           - BOHR/RAD -       - ANG/DEG -
	 R(1,3)           =         2.607414	       1.379784
	 R(1,6)           =         2.630985	       1.392257
	 R(1,15)          =         2.021962	       1.069976
	 R(2,4)           =         2.614678	       1.383628
	 R(2,7)           =         2.605556	       1.378801
	 R(2,16)          =         2.022579	       1.070303
	 R(3,4)           =         2.618134	       1.385457
	 R(3,17)          =         2.024640	       1.071393
	 R(4,18)          =         2.025482	       1.071839
	 R(5,12)          =         2.820740	       1.492672
	 R(5,19)          =         2.041787	       1.080467
	 R(5,20)          =         2.039808	       1.079420
	 R(5,21)          =         2.043968	       1.081621
	 R(6,7)           =         2.627758	       1.390550
	 R(6,11)          =         2.788694	       1.475714
	 R(7,13)          =         2.656392	       1.405702
	 R(8,11)          =         2.298188	       1.216149
	 R(9,12)          =         2.275158	       1.203962
	 R(10,11)         =         2.563912	       1.356764
	 R(10,14)         =         1.817484	       0.961771
	 R(12,13)         =         2.605842	       1.378952
	 B(1,3,4)         =         2.085188	     119.472466
	 B(1,3,17)        =         2.093471	     119.947076
	 B(1,6,7)         =         2.065522	     118.345668
	 B(1,6,11)        =         2.024509	     115.995802
	 B(2,4,3)         =         2.095795	     120.080186
	 B(2,4,18)        =         2.089574	     119.723788
	 B(2,7,6)         =         2.108266	     120.794764
	 B(2,7,13)        =         2.038904	     116.820619
	 B(3,1,6)         =         2.116186	     121.248545
	 B(3,1,15)        =         2.098131	     120.214023
	 B(3,4,18)        =         2.097814	     120.195877
	 B(4,2,7)         =         2.095360	     120.055311
	 B(4,2,16)        =         2.111944	     121.005481
	 B(4,3,17)        =         2.104524	     120.580337
	 B(5,12,9)        =         2.214888	     126.903725
	 B(5,12,13)       =         1.947133	     111.562529
	 B(6,1,15)        =         2.068857	     118.536788
	 B(6,7,13)        =         2.134700	     122.309327
	 B(6,11,8)        =         2.152786	     123.345577
	 B(6,11,10)       =         2.042802	     117.043920
	 B(7,2,16)        =         2.075868	     118.938493
	 B(7,6,11)        =         2.193101	     125.655434
	 B(7,13,12)       =         2.150308	     123.203546
	 B(8,11,10)       =         2.087276	     119.592080
	 B(9,12,13)       =         2.121141	     121.532417
	 B(11,10,14)      =         1.982683	     113.599386
	 B(12,5,19)       =         1.907818	     109.309896
	 B(12,5,20)       =         1.913766	     109.650703
	 B(12,5,21)       =         1.919163	     109.959938
	 B(19,5,20)       =         1.914597	     109.698349
	 B(19,5,21)       =         1.898549	     108.778872
	 B(20,5,21)       =         1.909860	     109.426926
	 D(1,3,4,2)       =         0.000854	       0.048906
	 D(1,3,4,18)      =        -3.138274	    -179.809881
	 D(1,6,7,2)       =         0.010885	       0.623679
	 D(1,6,7,13)      =         3.095642	     177.367209
	 D(1,6,11,8)      =         0.024993	       1.431965
	 D(1,6,11,10)     =         3.139170	     179.861217
	 D(2,4,3,17)      =        -3.138526	    -179.824294
	 D(2,7,6,11)      =         3.140822	     179.955872
	 D(2,7,13,12)     =        -1.778874	    -101.921983
	 D(3,1,6,7)       =        -0.004699	      -0.269227
	 D(3,1,6,11)      =        -3.135755	    -179.665533
	 D(3,4,2,7)       =         0.005279	       0.302457
	 D(3,4,2,16)      =        -3.130888	    -179.386678
	 D(4,2,7,6)       =        -0.011287	      -0.646677
	 D(4,2,7,13)      =        -3.099055	    -177.562789
	 D(4,3,1,6)       =        -0.001085	      -0.062146
	 D(4,3,1,15)      =        -3.137504	    -179.765757
	 D(5,12,13,7)     =        -3.108645	    -178.112218
	 D(6,1,3,17)      =         3.138309	     179.811870
	 D(6,7,2,16)      =         3.124992	     179.048860
	 D(6,7,13,12)     =         1.417424	      81.212425
	 D(6,11,10,14)    =        -3.127960	    -179.218900
	 D(7,2,4,18)      =        -3.138767	    -179.838087
	 D(7,6,1,15)      =         3.131805	     179.439229
	 D(7,6,11,8)      =        -3.105188	    -177.914142
	 D(7,6,11,10)     =         0.008990	       0.515109
	 D(7,13,12,9)     =         0.039788	       2.279683
	 D(8,11,10,14)    =        -0.012704	      -0.727869
	 D(9,12,5,19)     =        -2.125590	    -121.787314
	 D(9,12,5,20)     =        -0.026147	      -1.498085
	 D(9,12,5,21)     =         2.074527	     118.861666
	 D(11,6,1,15)     =         0.000749	       0.042923
	 D(11,6,7,13)     =        -0.057606	      -3.300598
	 D(13,7,2,16)     =         0.037223	       2.132748
	 D(13,12,5,19)    =         1.023294	      58.630414
	 D(13,12,5,20)    =         3.122737	     178.919644
	 D(13,12,5,21)    =        -1.059774	     -60.720606
	 D(15,1,3,17)     =         0.001889	       0.108259
	 D(16,2,4,18)     =         0.008252	       0.472779
	 D(17,3,4,18)     =         0.005531	       0.316918

	Current energy   :      -644.6745206967

	Energy change for the previous step:
		Projected    :        -0.0150202375
		Actual       :        -0.0133170785
	Energy ratio indicates good step: Trust radius increased to 8.000e-01.


	Performing BFGS update with previous 1 gradient(s).
	Going to follow RFO solution 1.
	Projected energy change by RFO approximation:        -0.0016029728

	Back-transformation to cartesian coordinates...
	Successfully converged to displaced geometry.

	---Internal Coordinate Step in ANG or DEG, aJ/ANG or AJ/DEG ---
	 ----------------------------------------------------------------------
	 Coordinate             Previous        Force       Change         New 
	 ----------             --------       ------       ------       ------
	 R(1,3)          =      1.379784     0.025372     0.002060     1.381844
	 R(1,6)          =      1.392257     0.022898     0.002173     1.394431
	 R(1,15)         =      1.069976     0.002970    -0.000754     1.069223
	 R(2,4)          =      1.383628     0.011234     0.000757     1.384386
	 R(2,7)          =      1.378801     0.020765     0.001266     1.380067
	 R(2,16)         =      1.070303     0.002250    -0.000674     1.069629
	 R(3,4)          =      1.385457     0.021758     0.002212     1.387668
	 R(3,17)         =      1.071393     0.001102    -0.000853     1.070541
	 R(4,18)         =      1.071839     0.003187    -0.000460     1.071379
	 R(5,12)         =      1.492672    -0.033098    -0.006333     1.486338
	 R(5,19)         =      1.080467     0.003553    -0.000206     1.080261
	 R(5,20)         =      1.079420    -0.007681    -0.002272     1.077148
	 R(5,21)         =      1.081621     0.001362    -0.000469     1.081152
	 R(6,7)          =      1.390550     0.014505     0.001177     1.391727
	 R(6,11)         =      1.475714     0.001611    -0.000325     1.475388
	 R(7,13)         =      1.405702    -0.110773    -0.013384     1.392318
	 R(8,11)         =      1.216149     0.002166    -0.000031     1.216117
	 R(9,12)         =      1.203962     0.015631    -0.000232     1.203729
	 R(10,11)        =      1.356764    -0.065174    -0.005920     1.350844
	 R(10,14)        =      0.961771    -0.070130    -0.009115     0.952656
	 R(12,13)        =      1.378952    -0.074291    -0.009803     1.369149
	 B(1,3,4)        =    119.472466     0.000047     0.112121   119.584587
	 B(1,3,17)       =    119.947076    -0.000007    -0.003680   119.943396
	 B(1,6,7)        =    118.345668    -0.000095    -0.245225   118.100443
	 B(1,6,11)       =    115.995802     0.000101     0.233135   116.228937
	 B(2,4,3)        =    120.080186    -0.000003     0.006487   120.086673
	 B(2,4,18)       =    119.723788    -0.000027    -0.138711   119.585076
	 B(2,7,6)        =    120.794764     0.000158     0.405001   121.199765
	 B(2,7,13)       =    116.820619    -0.000037    -0.078108   116.742511
	 B(3,1,6)        =    121.248545    -0.000027    -0.041900   121.206645
	 B(3,1,15)       =    120.214023     0.000111     0.535974   120.749997
	 B(3,4,18)       =    120.195877     0.000029     0.132367   120.328244
	 B(4,2,7)        =    120.055311    -0.000079    -0.235345   119.819966
	 B(4,2,16)       =    121.005481     0.000084     0.390955   121.396436
	 B(4,3,17)       =    120.580337    -0.000040    -0.108524   120.471813
	 B(5,12,9)       =    126.903725     0.000042     0.265197   127.168922
	 B(5,12,13)      =    111.562529    -0.000445    -1.037607   110.524921
	 B(6,1,15)       =    118.536788    -0.000084    -0.494312   118.042475
	 B(6,7,13)       =    122.309327    -0.000122    -0.370826   121.938501
	 B(6,11,8)       =    123.345577     0.000091     0.014816   123.360393
	 B(6,11,10)      =    117.043920    -0.000400    -1.064917   115.979003
	 B(7,2,16)       =    118.938493    -0.000004    -0.161272   118.777221
	 B(7,6,11)       =    125.655434    -0.000006     0.010664   125.666098
	 B(7,13,12)      =    123.203546    -0.000322    -0.151635   123.051911
	 B(8,11,10)      =    119.592080     0.000313     0.697166   120.289246
	 B(9,12,13)      =    121.532417     0.000403     0.708522   122.240939
	 B(11,10,14)     =    113.599386    -0.000511    -1.384438   112.214947
	 B(12,5,19)      =    109.309896     0.000008    -0.095071   109.214825
	 B(12,5,20)      =    109.650703    -0.000096    -0.207836   109.442867
	 B(12,5,21)      =    109.959938     0.000027     0.024199   109.984137
	 B(19,5,20)      =    109.698349     0.000085     0.625116   110.323466
	 B(19,5,21)      =    108.778872    -0.000097    -0.883515   107.895357
	 B(20,5,21)      =    109.426926     0.000074     0.532559   109.959485
	 D(1,3,4,2)      =      0.048906    -0.000000    -0.099646    -0.050740
	 D(1,3,4,18)     =   -179.809881    -0.000002    -0.210756  -180.020638
	 D(1,6,7,2)      =      0.623679    -0.000007    -1.152716    -0.529037
	 D(1,6,7,13)     =    177.367209    -0.000012    -1.995827   175.371382
	 D(1,6,11,8)     =      1.431965    -0.000027    -7.718139    -6.286174
	 D(1,6,11,10)    =    179.861217     0.000009     0.845978   180.707194
	 D(2,4,3,17)     =   -179.824294    -0.000000    -0.062154  -179.886448
	 D(2,7,6,11)     =    179.955872    -0.000007    -1.290289   178.665583
	 D(2,7,13,12)    =   -101.921983    -0.000029   -11.865143  -113.787126
	 D(3,1,6,7)      =     -0.269227     0.000004     0.572521     0.303295
	 D(3,1,6,11)     =   -179.665533     0.000003     0.698241  -178.967292
	 D(3,4,2,7)      =      0.302457    -0.000003    -0.473042    -0.170585
	 D(3,4,2,16)     =   -179.386678     0.000000     0.146050  -179.240629
	 D(4,2,7,6)      =     -0.646677     0.000007     1.115404     0.468728
	 D(4,2,7,13)     =   -177.562789     0.000012     1.926854  -175.635935
	 D(4,3,1,6)      =     -0.062146     0.000000     0.042587    -0.019558
	 D(4,3,1,15)     =   -179.765757     0.000000     0.094823  -179.670935
	 D(5,12,13,7)    =   -178.112218     0.000020     6.044359  -172.067859
	 D(6,1,3,17)     =    179.811870     0.000000     0.005160   179.817030
	 D(6,7,2,16)     =    179.048860     0.000004     0.514226   179.563086
	 D(6,7,13,12)    =     81.212425    -0.000026   -11.073181    70.139244
	 D(6,11,10,14)   =   -179.218900    -0.000011    -2.970707  -182.189607
	 D(7,2,4,18)     =   -179.838087    -0.000002    -0.362377  -180.200463
	 D(7,6,1,15)     =    179.439229     0.000004     0.524603   179.963832
	 D(7,6,11,8)     =   -177.914142    -0.000028    -7.580042  -185.494184
	 D(7,6,11,10)    =      0.515109     0.000009     0.984075     1.499185
	 D(7,13,12,9)    =      2.279683     0.000027     8.394033    10.673715
	 D(8,11,10,14)   =     -0.727869     0.000024     5.301650     4.573781
	 D(9,12,5,19)    =   -121.787314    -0.000014    -1.338503  -123.125817
	 D(9,12,5,20)    =     -1.498085    -0.000002    -0.758387    -2.256472
	 D(9,12,5,21)    =    118.861666     0.000009    -0.216744   118.644922
	 D(11,6,1,15)    =      0.042923     0.000003     0.650322     0.693246
	 D(11,6,7,13)    =     -3.300598    -0.000011    -2.133400    -5.433998
	 D(13,7,2,16)    =      2.132748     0.000009     1.325675     3.458423
	 D(13,12,5,19)   =     58.630414    -0.000007     1.153911    59.784326
	 D(13,12,5,20)   =    178.919644     0.000005     1.734027   180.653671
	 D(13,12,5,21)   =    -60.720606     0.000016     2.275670   -58.444936
	 D(15,1,3,17)    =      0.108259     0.000000     0.057395     0.165654
	 D(16,2,4,18)    =      0.472779     0.000002     0.256715     0.729493
	 D(17,3,4,18)    =      0.316918    -0.000002    -0.173264     0.143654
	 ----------------------------------------------------------------------

  ==> Convergence Check <==

  Measures of convergence in internal coordinates in au.
  Criteria marked as inactive (o), active & met (*), and active & unmet ( ).
  ---------------------------------------------------------------------------------------------
   Step     Total Energy     Delta E     MAX Force     RMS Force      MAX Disp      RMS Disp   
  ---------------------------------------------------------------------------------------------
    Convergence Criteria    1.00e-06 *    3.00e-04 *             o    1.20e-03 *             o
  ---------------------------------------------------------------------------------------------
      2    -644.67452070   -1.33e-02      1.34e-02      2.68e-03 o    2.07e-01      4.33e-02 o  ~
  ---------------------------------------------------------------------------------------------

	Writing optimization data to binary file.
	Structure for next step:
	Cartesian Geometry (in Angstrom)
	    C     2.2584341117  -0.4425145669   0.0814044816
	    C     0.9666738365   1.8437126098  -0.7809688300
	    C     2.9957347752   0.6854091598  -0.2246494615
	    C     2.3454492003   1.8325161357  -0.6569662355
	    C    -3.4313074053   0.5969308560  -0.2792199521
	    C     0.8689385227  -0.4510886132  -0.0354930042
	    C     0.2410481241   0.7098856212  -0.4768506800
	    O     0.7848488857  -2.7266835552   0.6305636366
	    O    -1.7631114994   0.8144306494   1.4499048161
	    O    -1.1541041903  -1.7132816057   0.2130382779
	    C     0.1905196704  -1.7055978849   0.3422954831
	    C    -2.0626455208   0.7147320668   0.2883093911
	    O    -1.1301149200   0.7614581689  -0.7130761844
	    H    -1.5328554988  -2.5576809582   0.4390690845
	    H     2.7398135751  -1.3347576320   0.4211298973
	    H     0.4450514887   2.7123744027  -1.1236696824
	    H     4.0615052079   0.6704761865  -0.1248112958
	    H     2.9053164999   2.7138282946  -0.8971553364
	    H    -3.4954828345  -0.3064683375  -0.8680452122
	    H    -4.1508642801   0.5731897800   0.5219807112
	    H    -3.6337885180   1.4343190888  -0.9324216385
			--------------------------
			 OPTKING Finished Execution 
			--------------------------

    Structure for next step:
    Molecular point group: c1
    Full point group: C1

    Geometry (in Angstrom), charge = 0, multiplicity = 1:

    C            2.271714720239    -0.462137745859     0.071466810856
    C            0.979954543711     1.824089256292    -0.790906434903
    C            3.009015327478     0.665785894646    -0.234587108906
    C            2.358729802234     1.812892783023    -0.666903849806
    C           -3.418026362277     0.577307597620    -0.289157595244
    C            0.882219237421    -0.470711791515    -0.045430666002
    C            0.254328886687     0.690262354256    -0.486788308102
    O            0.798129606775    -2.746306559794     0.620625923945
    O           -1.749830583721     0.794807374408     1.439967040888
    O           -1.140823321136    -1.732904687654     0.203100597072
    C            0.203800436903    -1.725220967383     0.332357792404
    C           -2.049364582228     0.695108799491     0.278371704616
    O           -1.116834052664     0.741834897956    -0.723013794490
    H           -1.519574600710    -2.577303975603     0.429131386470
    H            2.753094146965    -1.354380742822     0.411192200623
    H            0.458332235768     2.692750982761    -1.133607261075
    H            4.074785678776     0.650852922540    -0.134748950805
    H            2.918597059128     2.694204874588    -0.907092932446
    H           -3.482201786559    -0.326091526876    -0.877982810388
    H           -4.137583182057     0.553566523456     0.512043006780
    H           -3.620507459498     1.414695766541    -0.942359231780


*** tstart() called on hartree
*** at Mon Dec 23 13:30:36 2013

	There are an even number of electrons - assuming singlet.
	Specify the multiplicity with the MULTP option in the
	input if this is incorrect


         ---------------------------------------------------------
                                   SCF
            by Justin Turney, Rob Parrish, and Andy Simmonett
                              RHF Reference
                        1 Threads,    256 MiB Core
         ---------------------------------------------------------

  ==> Geometry <==

    Molecular point group: c1
    Full point group: C1

    Geometry (in Angstrom), charge = 0, multiplicity = 1:

       Center              X                  Y                   Z       
    ------------   -----------------  -----------------  -----------------
           C          2.271714720239    -0.462137745859     0.071466810856
           C          0.979954543711     1.824089256292    -0.790906434903
           C          3.009015327478     0.665785894646    -0.234587108906
           C          2.358729802234     1.812892783023    -0.666903849806
           C         -3.418026362277     0.577307597620    -0.289157595244
           C          0.882219237421    -0.470711791515    -0.045430666002
           C          0.254328886687     0.690262354256    -0.486788308102
           O          0.798129606775    -2.746306559794     0.620625923945
           O         -1.749830583721     0.794807374408     1.439967040888
           O         -1.140823321136    -1.732904687654     0.203100597072
           C          0.203800436903    -1.725220967383     0.332357792404
           C         -2.049364582228     0.695108799491     0.278371704616
           O         -1.116834052664     0.741834897956    -0.723013794490
           H         -1.519574600710    -2.577303975603     0.429131386470
           H          2.753094146965    -1.354380742822     0.411192200623
           H          0.458332235768     2.692750982761    -1.133607261075
           H          4.074785678776     0.650852922540    -0.134748950805
           H          2.918597059128     2.694204874588    -0.907092932446
           H         -3.482201786559    -0.326091526876    -0.877982810388
           H         -4.137583182057     0.553566523456     0.512043006780
           H         -3.620507459498     1.414695766541    -0.942359231780

  Running in c1 symmetry.

  Nuclear repulsion =  789.951023058269470

  Charge       = 0
  Multiplicity = 1
  Electrons    = 94
  Nalpha       = 47
  Nbeta        = 47

  ==> Algorithm <==

  SCF Algorithm Type is OUT_OF_CORE.
  DIIS enabled.
  MOM disabled.
  Fractional occupation disabled.
  Guess Type is READ.
  Energy threshold   = 1.00e-08
  Density threshold  = 1.00e-08
  Integral threshold = 0.00e+00

  ==> Primary Basis <==

  Basis Set: 6-31G
    Number of shells: 81
    Number of basis function: 133
    Number of Cartesian functions: 133
    Spherical Harmonics?: false
    Max angular momentum: 1

  ==> Pre-Iterations <==

   -------------------------------------------------------
    Irrep   Nso     Nmo     Nalpha   Nbeta   Ndocc  Nsocc
   -------------------------------------------------------
     A        133     133       0       0       0       0
   -------------------------------------------------------
    Total     133     133      47      47      47       0
   -------------------------------------------------------

 OEINTS: Wrapper to libmints.
   by Justin Turney

   Calculation information:
      Number of atoms:                  21
      Number of AO shells:              81
      Number of SO shells:              81
      Number of primitives:            214
      Number of atomic orbitals:       133
      Number of basis functions:       133

      Number of irreps:                  1
      Number of functions per irrep: [ 133 ]

      Overlap, kinetic, potential, dipole, and quadrupole integrals
        stored in file 35.

  ==> Integral Setup <==

 MINTS: Wrapper to libmints.
   by Justin Turney

   Calculation information:
      Number of atoms:                  21
      Number of AO shells:              81
      Number of SO shells:              81
      Number of primitives:            214
      Number of atomic orbitals:       133
      Number of basis functions:       133

      Number of irreps:                  1
      Integral cutoff                 0.00e+00
      Number of functions per irrep: [ 133 ]

      Overlap, kinetic, potential, dipole, and quadrupole integrals
        stored in file 35.

      Computing two-electron integrals...done
      Computed 39700549 non-zero two-electron integrals.
        Stored in file 33.

  ==> DiskJK: Disk-Based J/K Matrices <==

    J tasked:                  Yes
    K tasked:                  Yes
    wK tasked:                  No
    Memory (MB):               183
    Schwarz Cutoff:          1E-12

  Minimum eigenvalue in the overlap matrix is 4.9694972449E-04.
  Using Symmetric Orthogonalization.
  SCF Guess: Projection.

  Using orbitals from previous SCF, no projection.
  ==> Iterations <==

                        Total Energy        Delta E     RMS |[F,P]|

   @RHF iter   0:  -644.65105536797830   -6.44651e+02   2.83000e-03 
   @RHF iter   1:  -644.67062101326985   -1.95656e-02   3.95233e-04 
   @RHF iter   2:  -644.67346500793553   -2.84399e-03   1.45375e-04 DIIS
   @RHF iter   3:  -644.67388937238923   -4.24364e-04   7.18868e-05 DIIS
   @RHF iter   4:  -644.67396659136932   -7.72190e-05   2.03677e-05 DIIS
   @RHF iter   5:  -644.67397797001502   -1.13786e-05   1.03788e-05 DIIS
   @RHF iter   6:  -644.67398188633990   -3.91632e-06   4.32575e-06 DIIS
   @RHF iter   7:  -644.67398238093608   -4.94596e-07   1.94446e-06 DIIS
   @RHF iter   8:  -644.67398250789176   -1.26956e-07   6.03686e-07 DIIS
   @RHF iter   9:  -644.67398252017267   -1.22809e-08   2.63248e-07 DIIS
   @RHF iter  10:  -644.67398252263854   -2.46587e-09   8.40980e-08 DIIS
   @RHF iter  11:  -644.67398252285045   -2.11912e-10   4.15259e-08 DIIS
   @RHF iter  12:  -644.67398252288365   -3.31966e-11   1.33476e-08 DIIS
   @RHF iter  13:  -644.67398252289001   -6.36646e-12   4.91764e-09 DIIS

  ==> Post-Iterations <==

	Orbital Energies (a.u.)
	-----------------------

	Doubly Occupied:                                                      

	   1A    -20.624911     2A    -20.619534     3A    -20.570995  
	   4A    -20.565615     5A    -11.424121     6A    -11.413378  
	   7A    -11.340970     8A    -11.276680     9A    -11.268817  
	  10A    -11.266012    11A    -11.256698    12A    -11.254084  
[...]
	             0.0000141102        0.0000135873       -0.0000022927
	             0.0000266775        0.0000089951       -0.0000162788
	            -0.0000233008        0.0000353544       -0.0000366397
	             0.0000035636       -0.0000225888        0.0000020922
	            -0.0000266082       -0.0000264257        0.0000071648
	             0.0000039828        0.0000002037        0.0000021641
	            -0.0000019617        0.0000027165        0.0000024343
	             0.0000052098       -0.0000000700       -0.0000030105
	             0.0000038233        0.0000041855        0.0000033126
	            -0.0000045708        0.0000057600       -0.0000151034
	            -0.0000073047        0.0000050056        0.0000034585
	            -0.0000053189        0.0000335089        0.0000019284

	---Fragment 1 Intrafragment Coordinates---
	 - Coordinate -           - BOHR/RAD -       - ANG/DEG -
	 R(1,3)           =         2.610345	       1.381335
	 R(1,6)           =         2.638163	       1.396056
	 R(1,15)          =         2.023129	       1.070594
	 R(2,4)           =         2.615590	       1.384111
	 R(2,7)           =         2.612674	       1.382568
	 R(2,16)          =         2.023028	       1.070540
	 R(3,4)           =         2.622701	       1.387874
	 R(3,17)          =         2.024980	       1.071573
	 R(4,18)          =         2.026471	       1.072362
	 R(5,12)          =         2.810910	       1.487469
	 R(5,19)          =         2.043523	       1.081386
	 R(5,20)          =         2.036880	       1.077870
	 R(5,21)          =         2.044409	       1.081855
	 R(6,7)           =         2.633575	       1.393628
	 R(6,11)          =         2.788930	       1.475838
	 R(7,13)          =         2.625730	       1.389477
	 R(8,11)          =         2.297612	       1.215844
	 R(9,12)          =         2.277432	       1.205165
	 R(10,11)         =         2.550839	       1.349846
	 R(10,14)         =         1.804222	       0.954753
	 R(12,13)         =         2.588338	       1.369690
	 B(1,3,4)         =         2.085935	     119.515287
	 B(1,3,17)        =         2.094767	     120.021324
	 B(1,6,7)         =         2.061993	     118.143522
	 B(1,6,11)        =         2.024683	     116.005779
	 B(2,4,3)         =         2.095765	     120.078478
	 B(2,4,18)        =         2.088156	     119.642543
	 B(2,7,6)         =         2.109756	     120.880090
	 B(2,7,13)        =         2.028900	     116.247396
	 B(3,1,6)         =         2.117577	     121.328215
	 B(3,1,15)        =         2.106157	     120.673927
	 B(3,4,18)        =         2.099262	     120.278826
	 B(4,2,7)         =         2.095298	     120.051749
	 B(4,2,16)        =         2.119048	     121.412525
	 B(4,3,17)        =         2.102482	     120.463365
	 B(5,12,9)        =         2.215998	     126.967313
	 B(5,12,13)       =         1.931921	     110.690932
	 B(6,1,15)        =         2.059449	     117.997747
	 B(6,7,13)        =         2.143095	     122.790280
	 B(6,11,8)        =         2.158599	     123.678595
	 B(6,11,10)       =         2.027141	     116.146625
	 B(7,2,16)        =         2.068833	     118.535390
	 B(7,6,11)        =         2.196505	     125.850466
	 B(7,13,12)       =         2.152169	     123.310197
	 B(8,11,10)       =         2.097400	     120.172150
	 B(9,12,13)       =         2.135000	     122.326506
	 B(11,10,14)      =         1.959057	     112.245679
	 B(12,5,19)       =         1.904002	     109.091294
	 B(12,5,20)       =         1.915459	     109.747688
	 B(12,5,21)       =         1.920097	     110.013482
	 B(19,5,20)       =         1.923067	     110.183614
	 B(19,5,21)       =         1.881259	     107.788194
	 B(20,5,21)       =         1.919635	     109.986998
	 D(1,3,4,2)       =         0.004665	       0.267263
	 D(1,3,4,18)      =        -3.139418	    -179.875389
	 D(1,6,7,2)       =         0.010589	       0.606718
	 D(1,6,7,13)      =         3.092448	     177.184219
	 D(1,6,11,8)      =         0.019028	       1.090241
	 D(1,6,11,10)     =        -3.112257	    -178.319166
	 D(2,4,3,17)      =        -3.137911	    -179.789033
	 D(2,7,6,11)      =        -3.127806	    -179.210076
	 D(2,7,13,12)     =        -1.912548	    -109.580914
	 D(3,1,6,7)       =        -0.007447	      -0.426675
	 D(3,1,6,11)      =         3.131262	     179.408099
	 D(3,4,2,7)       =        -0.001551	      -0.088851
	 D(3,4,2,16)      =        -3.139409	    -179.874864
	 D(4,2,7,6)       =        -0.006240	      -0.357526
	 D(4,2,7,13)      =        -3.091848	    -177.149846
	 D(4,3,1,6)       =        -0.000072	      -0.004130
	 D(4,3,1,15)      =         3.139367	     179.872459
	 D(5,12,13,7)     =        -3.013526	    -172.662338
	 D(6,1,3,17)      =        -3.140687	    -179.948087
	 D(6,7,2,16)      =         3.131725	     179.434597
	 D(6,7,13,12)     =         1.286202	      73.693936
	 D(6,11,10,14)    =        -3.121808	    -178.866437
	 D(7,2,4,18)      =        -3.140670	    -179.947108
	 D(7,6,1,15)      =         3.136244	     179.693538
	 D(7,6,11,8)      =        -3.125701	    -179.089503
	 D(7,6,11,10)     =         0.026199	       1.501090
	 D(7,13,12,9)     =         0.151261	       8.666591
	 D(8,11,10,14)    =         0.029706	       1.702050
	 D(9,12,5,19)     =        -2.088965	    -119.688898
	 D(9,12,5,20)     =         0.019548	       1.119995
	 D(9,12,5,21)     =         2.133993	     122.268814
	 D(11,6,1,15)     =        -0.008233	      -0.471689
	 D(11,6,7,13)     =        -0.045947	      -2.632575
	 D(13,7,2,16)     =         0.046116	       2.642277
	 D(13,12,5,19)    =         1.077158	      61.716616
	 D(13,12,5,20)    =        -3.097514	    -177.474490
	 D(13,12,5,21)    =        -0.983068	     -56.325672
	 D(15,1,3,17)     =        -0.001248	      -0.071498
	 D(16,2,4,18)     =         0.004658	       0.266878
	 D(17,3,4,18)     =         0.001192	       0.068315

	Current energy   :      -644.6757057999

	Energy change for the previous step:
		Projected    :        -0.0000002702
		Actual       :        -0.0000003916
	Energy ratio indicates good step: Trust radius increased to 2.000e-01.


	Performing BFGS update with previous 1 gradient(s).
	Going to follow RFO solution 1.
	Projected energy change by RFO approximation:        -0.0000003425

	Back-transformation to cartesian coordinates...
	Successfully converged to displaced geometry.

	---Internal Coordinate Step in ANG or DEG, aJ/ANG or AJ/DEG ---
	 ----------------------------------------------------------------------
	 Coordinate             Previous        Force       Change         New 
	 ----------             --------       ------       ------       ------
	 R(1,3)          =      1.381335    -0.000021    -0.000011     1.381324
	 R(1,6)          =      1.396056    -0.000077     0.000001     1.396056
	 R(1,15)         =      1.070594    -0.000019    -0.000006     1.070588
	 R(2,4)          =      1.384111    -0.000035    -0.000006     1.384104
	 R(2,7)          =      1.382568    -0.000096    -0.000018     1.382549
	 R(2,16)         =      1.070540    -0.000020    -0.000002     1.070538
	 R(3,4)          =      1.387874     0.000053     0.000013     1.387887
	 R(3,17)         =      1.071573    -0.000040    -0.000005     1.071568
	 R(4,18)         =      1.072362    -0.000039    -0.000007     1.072355
	 R(5,12)         =      1.487469    -0.000165    -0.000002     1.487467
	 R(5,19)         =      1.081386    -0.000020     0.000057     1.081443
	 R(5,20)         =      1.077870    -0.000064    -0.000011     1.077860
	 R(5,21)         =      1.081855    -0.000196    -0.000078     1.081777
	 R(6,7)          =      1.393628     0.000127    -0.000013     1.393615
	 R(6,11)         =      1.475838    -0.000070    -0.000016     1.475822
	 R(7,13)         =      1.389477    -0.000197    -0.000015     1.389462
	 R(8,11)         =      1.215844     0.000062     0.000013     1.215857
	 R(9,12)         =      1.205165    -0.000380    -0.000019     1.205147
	 R(10,11)        =      1.349846    -0.000101    -0.000004     1.349842
	 R(10,14)        =      0.954753    -0.000292    -0.000013     0.954740
	 R(12,13)        =      1.369690    -0.000204    -0.000010     1.369679
	 B(1,3,4)        =    119.515287     0.000000     0.000725   119.516011
	 B(1,3,17)       =    120.021324    -0.000000    -0.000745   120.020580
	 B(1,6,7)        =    118.143522    -0.000000     0.000747   118.144269
	 B(1,6,11)       =    116.005779    -0.000002    -0.001025   116.004754
	 B(2,4,3)        =    120.078478     0.000000     0.000846   120.079325
	 B(2,4,18)       =    119.642543    -0.000000    -0.000736   119.641807
	 B(2,7,6)        =    120.880090     0.000000     0.002176   120.882265
	 B(2,7,13)       =    116.247396    -0.000001     0.010556   116.257953
	 B(3,1,6)        =    121.328215    -0.000000    -0.001967   121.326248
	 B(3,1,15)       =    120.673927     0.000000     0.001494   120.675421
	 B(3,4,18)       =    120.278826     0.000000    -0.000072   120.278754
	 B(4,2,7)        =    120.051749    -0.000000    -0.002221   120.049527
	 B(4,2,16)       =    121.412525     0.000000     0.000118   121.412642
	 B(4,3,17)       =    120.463365    -0.000000     0.000030   120.463395
	 B(5,12,9)       =    126.967313     0.000000     0.002454   126.969767
	 B(5,12,13)      =    110.690932    -0.000001    -0.000748   110.690183
	 B(6,1,15)       =    117.997747    -0.000000     0.000465   117.998213
	 B(6,7,13)       =    122.790280     0.000000    -0.011735   122.778545
	 B(6,11,8)       =    123.678595    -0.000002    -0.003904   123.674692
	 B(6,11,10)      =    116.146625     0.000001     0.003759   116.150384
	 B(7,2,16)       =    118.535390     0.000000     0.002076   118.537467
	 B(7,6,11)       =    125.850466     0.000002     0.000246   125.850713
	 B(7,13,12)      =    123.310197    -0.000002    -0.007380   123.302816
	 B(8,11,10)      =    120.172150     0.000002     0.000255   120.172405
	 B(9,12,13)      =    122.326506     0.000001    -0.001569   122.324937
	 B(11,10,14)     =    112.245679    -0.000002    -0.003206   112.242473
	 B(12,5,19)      =    109.091294    -0.000002    -0.028405   109.062889
	 B(12,5,20)      =    109.747688    -0.000000     0.001373   109.749061
	 B(12,5,21)      =    110.013482     0.000001     0.025813   110.039295
	 B(19,5,20)      =    110.183614    -0.000000    -0.023671   110.159943
	 B(19,5,21)      =    107.788194    -0.000000    -0.003179   107.785015
	 B(20,5,21)      =    109.986998     0.000001     0.027572   110.014570
	 D(1,3,4,2)      =      0.267263    -0.000000    -0.024453     0.242810
	 D(1,3,4,18)     =   -179.875389     0.000000    -0.005217  -179.880607
	 D(1,6,7,2)      =      0.606718    -0.000000    -0.033491     0.573227
	 D(1,6,7,13)     =    177.184219    -0.000000    -0.012351   177.171868
	 D(1,6,11,8)     =      1.090241    -0.000000    -0.147744     0.942497
	 D(1,6,11,10)    =   -178.319166     0.000000    -0.160307  -178.479473
	 D(2,4,3,17)     =   -179.789033    -0.000000    -0.011253  -179.800285
	 D(2,7,6,11)     =   -179.210076     0.000000    -0.021587  -179.231663
	 D(2,7,13,12)    =   -109.580914     0.000000     0.165603  -109.415311
	 D(3,1,6,7)      =     -0.426675     0.000000     0.020053    -0.406622
	 D(3,1,6,11)     =    179.408099    -0.000000     0.009320   179.417418
	 D(3,4,2,7)      =     -0.088851     0.000000     0.011197    -0.077654
	 D(3,4,2,16)     =   -179.874864     0.000000     0.019784  -179.855080
	 D(4,2,7,6)      =     -0.357526     0.000000     0.018321    -0.339205
	 D(4,2,7,13)     =   -177.149846     0.000000    -0.000778  -177.150624
	 D(4,3,1,6)      =     -0.004130     0.000000     0.008595     0.004465
	 D(4,3,1,15)     =    179.872459     0.000000     0.004368   179.876828
	 D(5,12,13,7)    =   -172.662338     0.000000     0.023868  -172.638470
	 D(6,1,3,17)     =   -179.948087    -0.000000    -0.004546  -179.952633
	 D(6,7,2,16)     =    179.434597     0.000000     0.009975   179.444572
	 D(6,7,13,12)    =     73.693936     0.000000     0.145599    73.839536
	 D(6,11,10,14)   =   -178.866437    -0.000000     0.020684  -178.845752
	 D(7,2,4,18)     =   -179.947108    -0.000000    -0.007917  -179.955025
	 D(7,6,1,15)     =    179.693538     0.000000     0.024169   179.717706
	 D(7,6,11,8)     =   -179.089503    -0.000000    -0.159420  -179.248923
	 D(7,6,11,10)    =      1.501090    -0.000000    -0.171982     1.329107
	 D(7,13,12,9)    =      8.666591     0.000000     0.017880     8.684470
	 D(8,11,10,14)   =      1.702050     0.000000     0.008619     1.710668
	 D(9,12,5,19)    =   -119.688898     0.000000     0.478016  -119.210882
	 D(9,12,5,20)    =      1.119995    -0.000000     0.432064     1.552059
	 D(9,12,5,21)    =    122.268814     0.000000     0.483715   122.752529
	 D(11,6,1,15)    =     -0.471689    -0.000000     0.013435    -0.458253
	 D(11,6,7,13)    =     -2.632575     0.000000    -0.000448    -2.633023
	 D(13,7,2,16)    =      2.642277    -0.000000    -0.009124     2.633153
	 D(13,12,5,19)   =     61.716616     0.000000     0.471752    62.188368
	 D(13,12,5,20)   =   -177.474490     0.000000     0.425800  -177.048691
	 D(13,12,5,21)   =    -56.325672     0.000000     0.477451   -55.848221
	 D(15,1,3,17)    =     -0.071498    -0.000000    -0.008773    -0.080270
	 D(16,2,4,18)    =      0.266878     0.000000     0.000670     0.267549
	 D(17,3,4,18)    =      0.068315     0.000000     0.007983     0.076298
	 ----------------------------------------------------------------------

  ==> Convergence Check <==

  Measures of convergence in internal coordinates in au.
  Criteria marked as inactive (o), active & met (*), and active & unmet ( ).
  ---------------------------------------------------------------------------------------------
   Step     Total Energy     Delta E     MAX Force     RMS Force      MAX Disp      RMS Disp   
  ---------------------------------------------------------------------------------------------
    Convergence Criteria    1.00e-06 *    3.00e-04 *             o    1.20e-03 *             o
  ---------------------------------------------------------------------------------------------
     16    -644.67570580   -3.92e-07 *    4.61e-05 *    1.24e-05 o    8.44e-03      2.17e-03 o  ~
  ---------------------------------------------------------------------------------------------


  **** Optimization is complete! ****

  ==> Optimization Summary <==

  Measures of convergence in internal coordinates in au.
  --------------------------------------------------------------------------------------------------------------- ~
   Step         Total Energy             Delta E       MAX Force       RMS Force        MAX Disp        RMS Disp  ~
  --------------------------------------------------------------------------------------------------------------- ~
      1    -644.661203618175   -644.661203618175      0.05220442      0.01007903      0.18641740      0.03857305  ~
      2    -644.674520696724     -0.013317078548      0.01344544      0.00268219      0.20708581      0.04327982  ~
      3    -644.673982522890      0.000538173834      0.01069230      0.00275773      0.15725637      0.03857438  ~
      4    -644.670812342289      0.003170180602      0.05341582      0.00700708      0.04999904      0.00810934  ~
      5    -644.673356449603     -0.002544107314      0.03688219      0.00481839      0.09997619      0.01799521  ~
      6    -644.675173717092     -0.001817267490      0.00315804      0.00097553      0.20007320      0.04315409  ~
      7    -644.671411537634      0.003762179458      0.01490012      0.00492626      0.04999853      0.01123375  ~
      8    -644.674145192805     -0.002733655171      0.00863057      0.00222483      0.09990222      0.02716305  ~
      9    -644.674727690639     -0.000582497834      0.00518905      0.00156323      0.09996776      0.01941360  ~
     10    -644.675523959182     -0.000796268543      0.00413271      0.00108737      0.10001583      0.01450006  ~
     11    -644.675577860429     -0.000053901247      0.00519481      0.00078078      0.02500008      0.00481339  ~
     12    -644.675681720285     -0.000103859855      0.00147097      0.00030595      0.02137847      0.00394680  ~
     13    -644.675700141810     -0.000018421525      0.00094629      0.00020571      0.00627777      0.00178443  ~
     14    -644.675703953178     -0.000003811369      0.00050531      0.00008601      0.00574058      0.00120038  ~
     15    -644.675705408304     -0.000001455126      0.00004768      0.00001693      0.00386394      0.00098895  ~
     16    -644.675705799930     -0.000000391626      0.00004610      0.00001236      0.00844242      0.00217324  ~
  --------------------------------------------------------------------------------------------------------------- ~

	Writing optimization data to binary file.
	Final energy is   -644.6757057999300
	Final (previous) structure:
	Cartesian Geometry (in Angstrom)
	    C     2.2734330760  -0.4570139369   0.0859064253
	    C     0.9570520842   1.8057673382  -0.7950989535
	    C     2.9971529819   0.6815991589  -0.2105335151
	    C     2.3340845388   1.8166495850  -0.6557241465
	    C    -3.4350684646   0.6316526713  -0.2631622654
	    C     0.8847154341  -0.4910695191  -0.0529276549
	    C     0.2395557704   0.6632783902  -0.4927563223
	    O     0.8331878206  -2.7510234087   0.6794832375
	    O    -1.7497650164   0.8835837299   1.4448544586
	    O    -1.1066923890  -1.8183034123   0.1164598142
	    C     0.2319813608  -1.7713046216   0.2832780366
	    C    -2.0583980740   0.7503619526   0.2875208022
	    O    -1.1301710489   0.7199331164  -0.7192155421
	    H    -1.4725672135  -2.6641097216   0.3660608043
	    H     2.7661324779  -1.3435215428   0.4287223795
	    H     0.4241684638   2.6683950300  -1.1385589023
	    H     4.0627096539   0.6842502169  -0.0971710083
	    H     2.8839949325   2.7066367112  -0.8912711928
	    H    -3.5323877393  -0.3183936836  -0.7704458970
	    H    -4.1544609922   0.7016992499   0.5364455125
	    H    -3.6120655223   1.4137525689  -0.9893865496
	Saving final (previous) structure.
			--------------------------
			 OPTKING Finished Execution 
			--------------------------

    Final optimized geometry and variables:
    Molecular point group: c1
    Full point group: C1

    Geometry (in Angstrom), charge = 0, multiplicity = 1:

    C            2.273432902420    -0.457013902018     0.085906418713
    C            0.957052011095     1.805767200312    -0.795098892792
    C            2.997152753066     0.681599106881    -0.210533499010
    C            2.334084360586     1.816649446246    -0.655724096427
    C           -3.435068202244     0.631652623105    -0.263162245306
    C            0.884715366562    -0.491069481565    -0.052927650894
    C            0.239555752077     0.663278339582    -0.492756284696
    O            0.833187756959    -2.751023198670     0.679483185624
    O           -1.749764882770     0.883583662466     1.444854348253
    O           -1.106692304499    -1.818303273424     0.116459805336
    C            0.231981343078    -1.771304486315     0.283278015007
    C           -2.058397916824     0.750361895293     0.287520780214
    O           -1.130170962612     0.719933061392    -0.719215487218
    H           -1.472567101000    -2.664109518186     0.366060776344
    H            2.766132266686    -1.343521440207     0.428722346800
    H            0.424168431435     2.668394826240    -1.138558815362
    H            4.062709343625     0.684250164677    -0.097171000904
    H            2.883994712311     2.706636504543    -0.891271124785
    H           -3.532387469601    -0.318393659318    -0.770445838209
    H           -4.154460674949     0.701699196274     0.536445471553
    H           -3.612065246490     1.413752460916    -0.989386474056


*** PSI4 exiting successfully. Buy a developer a beer!
