                  Welcome to Q-Chem
     A Quantum Leap Into The Future Of Chemistry

 Y. Shao, L. Fusti-Molnar, Y. Jung, J. Kussmann, C. Ochsenfeld,
 S. T. Brown, A. T. B. Gilbert, L. V. Slipchenko,S. V. Levchenko,
 D. P. O'Neill, R. A. DiStasio Jr., R. C. Lochan, T. Wang,
 G. J. O. Beran, N. A. Besley, J. M. Herbert, C. Y. Lin,
 T. Van Voorhis, S. H. Chien, A. Sodt, R. P. Steele, 
 V. A. Rassolov, P. E. Maslen, P. P. Korambath, R. D. Adamson,
 B. Austin, J. Baker, E. F. C. Byrd, H. Dachsel, R. J. Doerksen,
 A. Dreuw, B. D. Dunietz, A. D. Dutoi, T. R. Furlani,
 S. R. Gwaltney, A. Heyden, S. Hirata, C.-P. Hsu, G. Kedziora,
 R. Z. Khaliullin, P. Klunzinger, A. M. Lee, M. S. Lee, W. Liang,
 I. Lotan, N. Nair, B. Peters, E. I. Proynov, P. A. Pieniazek, 
 Y. M. Rhee, J. Ritchie, E. Rosta, C. D. Sherrill, 
 A. C. Simmonett, J. E. Subotnik, H. L. Woodcock III,
 W. Zhang, A. T. Bell, A. K. Chakraborty, D. M. Chipman,
 F. J. Keil, A. Warshel, W. J. Hehre, H. F. Schaefer III,
 J. Kong, A. I. Krylov, P. M. W. Gill, M. Head-Gordon,

 Additional authors for Version 3.1: 
 Z. Gan, Y. Zhao, N. E. Schultz, D. Truhlar, E. Epifanovsky and M. Oana.

 Additional authors for Version 3.2: 
 R. Baer, B. R. Brooks, D. Casanova, J.-D. Chai, C.-L. Cheng, 
 C. Cramer, D. Crittenden, A. Ghysels, G. Hawkins, E. G. Hohenstein, 
 C. Kelley, W. Kurlancheek, D. Liotard, E. Livshits, P. Manohar, 
 A. Marenich, D. Neuhauser, R. Olson, M. A. Rohrdanz, K. S. Thanthiriwatte, 
 A. J. W. Thom, V. Vanovschi, C. F. Williams, Q. Wu and Z.-Q. You. 

 Additional authors for Version 4.0: 
 A. Aspuru-Guzik, C. Chang, R. G. Edgar, E. Sundstrom, J. Parkhill, K. Lawler,
 M. Gordon, M. Schmidt, N. Shenvi, D. Lambrecht, M. Goldey, R. Olivares-Amaya,
 Y. Bernard, L. Vogt, M. Watson, J. Liu, S. Yeganeh, B. Kaduk, O. Vydrov, X. Xu, 
 I. Kaliman, K. Khistyaev, N. Russ, I.Y. Zhang, W.A. Goddard III, F. Liu, R. King ,
 A. Landau, M. Wormit, A. Dreuw, M. Diedenhofen, A. Klamt, A.W. Lange, D. Ghosh,
 D. Kosenkov, T. Kus, A. Landau, D. Zuev, J. Deng, S.P. Mao, Y.C. Su, D. Small,
 L. D. Jacobson

 Additional authors for Version 4.1: 
 A. Laurent, H. Ji, M. W.D. Hason-Heine, N. Mardirossian, N. Sergueev, P. Zimmerman,
 P. Horn, R. Peverati, S. Sharada, P. Zimmerman, P. Horn, X. Feng 

 
 Q-Chem, Version 4.1, Q-Chem, Inc., Pittsburgh, PA (2013).


 Intel X86 EM64T Linux Version 4.1.0.1 

 Q-chem begins on Sun Dec 22 16:20:07 2013  

Host: 
0

     Scratch files written to /home/eric/scratch/qchem/qchem18594//
 Nov1713 |home|eric|opt|apps|qchem|4.1-release.O2.omp|libmdc|qstr_info.C -1

theFileMan(): MAXOPENFILES=974 MAX_SUB_FILE_NUM=16
Maximum size of a physical file is 2.0 GB, maximum size of a tmp-file is 32.0 GB

Finally everything over in PARseQInput

--------------------------------------------------------------
User input:
--------------------------------------------------------------
$rem
jobtype opt
exchange hf
basis 6-31g
$end

$molecule
0 1
C          2.05639       -0.16543        0.39727
C          0.68890        2.02854       -0.64816
C          2.74071        1.02327        0.12533
C          2.05734        2.11782       -0.40016
C         -3.59396        1.03209        0.04589
C          0.67738       -0.27507        0.15097
C          0.00274        0.84234       -0.35887
O          0.63293       -2.54526        0.93360
O         -1.76452        1.43252        1.56571
O         -1.24894       -1.68411        0.12975
C          0.05278       -1.58881        0.44958
C         -2.15199        1.12841        0.44513
O         -1.36167        0.82832       -0.65825
H         -1.47652       -2.60111        0.39232
H          2.60948       -1.01173        0.80284
H          0.15708        2.88266       -1.05823
H          3.80777        1.09126        0.32364
H          2.59044        3.04081       -0.61405
H         -3.81640        0.02049       -0.30287
H         -4.22480        1.24591        0.91440
H         -3.81296        1.76576       -0.73332
$end
--------------------------------------------------------------
 ----------------------------------------------------
       Standard Nuclear Orientation (Angstroms)
    I     Atom         X            Y            Z
 ----------------------------------------------------
    1      C       2.265978    -0.404854     0.238412
    2      C       0.840477     1.894169    -0.439008
    3      C       2.904187     0.839278     0.229636
    4      C       2.192037     1.986945    -0.112237
    5      C      -3.415479     0.619877    -0.155227
    6      C       0.904755    -0.518331    -0.091053
    7      C       0.199611     0.649106    -0.412833
    8      O       0.935266    -2.896166     0.245430
    9      O      -1.669966     0.792800     1.500166
   10      O      -0.950834    -1.970318    -0.471943
   11      C       0.330941    -1.887908    -0.076836
   12      C      -1.996990     0.693515     0.324789
   13      O      -1.149379     0.640111    -0.775580
   14      H      -1.145561    -2.928625    -0.398769
   15      H       2.841302    -1.291134     0.503229
   16      H       0.286196     2.789795    -0.705725
   17      H       3.957962     0.909085     0.488967
   18      H       2.689441     2.953566    -0.121650
   19      H      -3.575855    -0.314339    -0.699257
   20      H      -4.090347     0.639614     0.706255
   21      H      -3.636924     1.479826    -0.791507
 ----------------------------------------------------
 Molecular Point Group                 C1    NOp =  1
 Largest Abelian Subgroup              C1    NOp =  1
 Nuclear Repulsion Energy =   782.6611652780 hartrees
 There are       47 alpha and       47 beta electrons
 Requested basis set is 6-31G
 There are 55 shells and 133 basis functions

Total QAlloc Memory Limit   2000 MB
Mega-Array Size        61 MB
MEM_STATIC part        62 MB
 A cutoff of  1.0D-11 yielded   1253 shell pairs
 There are      8267 function pairs
 Smallest overlap matrix eigenvalue = 5.37E-04

  Scale SEOQF with 1.000000e-01/1.000000e-01/1.000000e-01

 Standard Electronic Orientation quadrupole field applied
 Nucleus-field energy     =     0.0000000242 hartrees
 Guess from superposition of atomic densities
 Warning:  Energy on first SCF cycle will be non-variational
 A restricted Hartree-Fock SCF calculation will be
 performed using Pulay DIIS extrapolation
 SCF converges when DIIS error is below 1.0E-08
 ---------------------------------------
  Cycle       Energy         DIIS Error
 ---------------------------------------
    1    -649.2857155413      9.29E-02
    2    -644.3670357549      1.09E-02
    3    -644.5331427937      8.45E-03
    4    -644.6558618819      1.23E-03
    5    -644.6601832291      5.98E-04
    6    -644.6610360685      1.44E-04
    7    -644.6611646441      7.29E-05
    8    -644.6611988109      2.67E-05
    9    -644.6612030620      1.12E-05
   10    -644.6612035604      3.50E-06
   11    -644.6612036112      1.27E-06
   12    -644.6612036175      4.05E-07
   13    -644.6612036185      1.89E-07
   14    -644.6612036187      8.82E-08
   15    -644.6612036187      3.25E-08
   16    -644.6612036197      1.93E-08
   17    -644.6612036203      1.20E-08
   18    -644.6612036208      3.06E-09 Convergence criterion met
 ---------------------------------------
 SCF time:  CPU 10.20 s  wall 10.53 s
 SCF   energy in the final basis set = -644.6612036208
 Total energy in the final basis set = -644.6612036208
 Analysis of SCF Wavefunction
 
 --------------------------------------------------------------
                    Orbital Energies (a.u.)
 --------------------------------------------------------------
 
 Alpha MOs
 -- Occupied --
-20.635 -20.630 -20.581 -20.574 -11.424 -11.420 -11.342 -11.283
-11.273 -11.273 -11.264 -11.260 -11.249  -1.504  -1.488  -1.394
 -1.382  -1.185  -1.070  -1.057  -1.015  -0.918  -0.869  -0.828
 -0.796  -0.731  -0.720  -0.701  -0.695  -0.676  -0.666  -0.649
 -0.633  -0.624  -0.597  -0.586  -0.568  -0.562  -0.532  -0.523
 -0.521  -0.486  -0.476  -0.467  -0.457  -0.366  -0.354
 -- Virtual --
  0.072   0.122   0.156   0.213   0.216   0.228   0.251   0.280
  0.290   0.308   0.315   0.325   0.342   0.366   0.401   0.410
  0.418   0.448   0.465   0.494   0.498   0.530   0.568   0.586
  0.708   0.711   0.733   0.741   0.750   0.762   0.780   0.803
  0.809   0.811   0.829   0.845   0.853   0.858   0.866   0.871
  0.890   0.922   0.928   0.952   0.966   0.990   1.030   1.040
  1.080   1.099   1.116   1.118   1.145   1.150   1.168   1.195
  1.205   1.217   1.221   1.231   1.249   1.255   1.269   1.275
  1.288   1.328   1.338   1.367   1.372   1.398   1.444   1.471
  1.482   1.510   1.555   1.578   1.687   1.707   1.741   1.758
  1.858   2.061   2.090   2.200   2.379   2.416
 --------------------------------------------------------------
 
          Ground-State Mulliken Net Atomic Charges

     Atom                 Charge (a.u.)
  ----------------------------------------
      1 C                    -0.157182
      2 C                    -0.195646
      3 C                    -0.214378
      4 C                    -0.166686
      5 C                    -0.518814
      6 C                    -0.121956
      7 C                     0.383986
      8 O                    -0.560421
      9 O                    -0.540444
     10 O                    -0.719332
     11 C                     0.780313
     12 C                     0.747626
     13 O                    -0.729370
     14 H                     0.444944
     15 H                     0.272050
     16 H                     0.231434
     17 H                     0.218580
     18 H                     0.224355
     19 H                     0.217248
     20 H                     0.202352
     21 H                     0.201340
  ----------------------------------------
  Sum of atomic charges =     0.000000

 -----------------------------------------------------------------
                    Cartesian Multipole Moments
 -----------------------------------------------------------------
    Charge (ESU x 10^10)
                -0.0000
    Dipole Moment (Debye)
         X      -0.4273      Y       1.9847      Z      -1.9826
       Tot       2.8376
    Quadrupole Moments (Debye-Ang)
        XX     -60.5086     XY       8.8435     YY     -72.0661
        XZ       3.6036     YZ      -0.7396     ZZ     -84.4910
    Octapole Moments (Debye-Ang^2)
       XXX     -21.3217    XXY       8.3243    XYY     -26.3108
       YYY      18.3126    XXZ       1.2498    XYZ       4.5068
       YYZ     -13.9779    XZZ       1.0800    YZZ     -12.8302
       ZZZ      -6.0890
    Hexadecapole Moments (Debye-Ang^3)
      XXXX   -1453.2573   XXXY       4.8391   XXYY    -417.3790
      XYYY     118.4073   YYYY   -1029.5710   XXXZ      36.9793
      XXYZ      -2.5809   XYYZ       2.9168   YYYZ      22.9485
      XXZZ    -341.0850   XYZZ      -0.1488   YYZZ    -216.5206
      XZZZ      12.0150   YZZZ      -2.1565   ZZZZ    -228.8405
 -----------------------------------------------------------------
 Calculating analytic gradient of the SCF energy
 Gradient of Coulomb and Exchange Energy
            1           2           3           4           5           6
    1  -9.6561827  -0.1163231 -11.6793334  -7.2536896   8.1097958  -0.8373455
    2   4.4865368 -11.9903432  -2.3405056  -9.8921278  -1.5255009   6.3154126
    3  -2.4309458   3.3834723  -2.2259027   0.1659630   0.6120096   0.2993706
            7           8           9          10          11          12
    1   1.8842781 -10.9830325   1.3221362  11.8468028   2.7539108   7.5673224
    2  -2.1942478  23.8867786  -4.7650741   3.7317164  -0.3676477  -1.0803193
    3   1.9698328  -5.7540327 -25.5224772   5.8997065   2.1283668   6.9357826
           13          14          15          16          17          18
    1   8.1997746   1.3085408  -3.9254247   2.5550218  -5.5454612  -2.7770302
    2  -4.2998570   6.2364161   4.7252299  -5.5154277  -0.5040943  -5.0266361
    3  14.3886232  -0.3598761  -1.5720277   1.7007192  -1.3231681   0.0520608
           19          20          21
    1   1.8261436   3.5058372   1.8942589
    2   3.9951875  -0.1367206  -3.7387757
    3   2.2688931  -3.1448623   2.5284922
 Gradient of SCF Energy
            1           2           3           4           5           6
    1  -0.0072068   0.0001557  -0.0015448   0.0011153   0.0084727  -0.0071879
    2  -0.0075974   0.0046097   0.0068617   0.0002325   0.0004437   0.0009857
    3  -0.0008370  -0.0018165  -0.0015125   0.0003085  -0.0098339  -0.0014995
            7           8           9          10          11          12
    1  -0.0251603   0.0002614  -0.0063284   0.0006001  -0.0123591   0.0314341
    2  -0.0117942  -0.0056540   0.0031001   0.0407599  -0.0210506   0.0025063
    3   0.0158609   0.0010588   0.0397065  -0.0080870  -0.0007972  -0.0074097
           13          14          15          16          17          18
    1  -0.0089127   0.0135742   0.0110983  -0.0026710   0.0111774   0.0056693
    2  -0.0041473  -0.0219648  -0.0086112   0.0118820   0.0014393   0.0094854
    3  -0.0446116   0.0075737   0.0040521  -0.0022472   0.0027126   0.0003116
           19          20          21
    1  -0.0029350  -0.0073769  -0.0018755
    2  -0.0097569  -0.0005342   0.0088042
    3  -0.0000830   0.0077613  -0.0006110
 Max gradient component =       4.461E-02
 RMS gradient           =       1.273E-02
 Gradient time:  CPU 3.76 s  wall 4.18 s
 Geometry Optimization Parameters
   NAtoms,    NIC,     NZ,  NCons,   NDum,   NFix, NCnnct, MaxDiis
       21     135       0       0       0       0       0       0


** GEOMETRY OPTIMIZATION IN DELOCALIZED INTERNAL COORDINATES **
   Searching for a Minimum

   Optimization Cycle:   1

                       Coordinates (Angstroms)
     ATOM              X           Y           Z
      1  C         2.265978   -0.404854    0.238412
      2  C         0.840477    1.894169   -0.439008
      3  C         2.904187    0.839278    0.229636
      4  C         2.192037    1.986945   -0.112237
      5  C        -3.415479    0.619877   -0.155227
      6  C         0.904755   -0.518331   -0.091053
      7  C         0.199611    0.649106   -0.412833
      8  O         0.935266   -2.896166    0.245430
      9  O        -1.669966    0.792800    1.500166
     10  O        -0.950834   -1.970318   -0.471943
     11  C         0.330941   -1.887908   -0.076836
     12  C        -1.996990    0.693515    0.324789
     13  O        -1.149379    0.640111   -0.775580
     14  H        -1.145561   -2.928625   -0.398769
     15  H         2.841302   -1.291134    0.503229
     16  H         0.286196    2.789795   -0.705725
     17  H         3.957962    0.909085    0.488967
     18  H         2.689441    2.953566   -0.121650
     19  H        -3.575855   -0.314339   -0.699257
     20  H        -4.090347    0.639614    0.706255
     21  H        -3.636924    1.479826   -0.791507
   Point Group: c1    Number of degrees of freedom:    57


   Energy is   -644.661203621


 Attempting to Generate Delocalized Internal Coordinates
 GETINT wrote B to file, NVib is           57
 calling HSSCONV
 HCONV 3*NATOMS:           63
 wrote HINT to file
  writing hessian 

 57 Hessian modes will be used to form the next step
  Hessian Eigenvalues:
     0.009269    0.011164    0.011290    0.014852    0.016050    0.016968
     0.018607    0.021225    0.022064    0.022215    0.022488    0.022776
     0.022957    0.023077    0.023095    0.023277    0.074958    0.076717
     0.159995    0.159999    0.160000    0.160000    0.160000    0.160000
     0.160000    0.160000    0.219998    0.224863    0.244761    0.249747
     0.249990    0.249993    0.249995    0.250000    0.250000    0.250000
     0.324492    0.340041    0.342948    0.344787    0.345334    0.348913
     0.351080    0.351462    0.352187    0.415073    0.419284    0.451957
     0.457286    0.460689    0.461315    0.465815    0.473183    0.512637
     0.563577    0.936081    0.958853

 Minimum Search - Taking Simple RFO Step
 Searching for Lamda that Minimizes Along All modes
 Value Taken    Lamda =  -0.02984611
 Calculated Step too Large.  Step scaled by  0.837430
 Step Taken.  Stepsize is  0.300000

                             Maximum     Tolerance    Cnvgd?
         Gradient           0.037486      0.000300      NO
         Displacement       0.134177      0.001200      NO
         Energy change     *********      0.000001      NO


 New Cartesian Coordinates Obtained by Inverse Iteration

 Displacement from previous Coordinates is:  1.116503
 ----------------------------------------------------
       Standard Nuclear Orientation (Angstroms)
    I     Atom         X            Y            Z
 ----------------------------------------------------
    1      C       2.310724    -0.394783     0.168875
    2      C       0.880437     1.907907    -0.364950
    3      C       2.960728     0.825586     0.151535
    4      C       2.241518     1.980251    -0.117705
    5      C      -3.468859     0.603485    -0.233342
    6      C       0.941526    -0.487013    -0.078068
    7      C       0.236171     0.685225    -0.336558
    8      O       1.006891    -2.842833     0.235320
    9      O      -1.811994     0.646466     1.523462
   10      O      -0.962878    -1.951947    -0.286873
   11      C       0.363252    -1.845546    -0.031590
   12      C      -2.094155     0.642971     0.349679
   13      O      -1.134470     0.686159    -0.642085
   14      H      -1.268258    -2.865414    -0.230134
   15      H       2.860018    -1.292592     0.378126
   16      H       0.313456     2.792538    -0.582074
   17      H       4.015647     0.873724     0.347246
   18      H       2.737316     2.933136    -0.136534
   19      H      -3.564901    -0.266906    -0.869713
   20      H      -4.199060     0.550447     0.563172
   21      H      -3.646292     1.495155    -0.822527
 ----------------------------------------------------
 Molecular Point Group                 C1    NOp =  1
 Largest Abelian Subgroup              C1    NOp =  1
 Nuclear Repulsion Energy =   782.6937473864 hartrees
 There are       47 alpha and       47 beta electrons
 Applying Cartesian multipole field
    Component          Value
    ---------          -----
     (2,0,0)        1.00000E-11
     (0,2,0)        2.00000E-11
     (0,0,2)       -3.00000E-11
 Nucleus-field energy     =     0.0000000247 hartrees
 Requested basis set is 6-31G
 There are 55 shells and 133 basis functions
 A cutoff of  1.0D-11 yielded   1246 shell pairs
 There are      8218 function pairs
 Smallest overlap matrix eigenvalue = 4.95E-04
 Guess MOs from SCF MO coefficient file
Reading MOs from coefficient file
Reading MOs from coefficient file
 A restricted Hartree-Fock SCF calculation will be
 performed using Pulay DIIS extrapolation
 SCF converges when DIIS error is below 1.0E-08
Geometry optimization detected.  Setting ReadMinima to 0
Setting SaveMinima to 0
 ---------------------------------------
  Cycle       Energy         DIIS Error
 ---------------------------------------
    1    -644.7888791617      6.01E-03
    2    -644.6706384937      8.92E-04
    3    -644.6738085592      4.25E-04
    4    -644.6743144849      1.91E-04
    5    -644.6744565239      5.61E-05
    6    -644.6744688622      2.39E-05
    7    -644.6744728080      9.67E-06
    8    -644.6744735673      3.52E-06
    9    -644.6744737128      1.29E-06
   10    -644.6744737290      5.35E-07
   11    -644.6744737319      1.70E-07
   12    -644.6744737322      7.45E-08
   13    -644.6744737321      2.31E-08
   14    -644.6744737324      1.34E-08
   15    -644.6744737324      8.22E-09 Convergence criterion met
 ---------------------------------------
 SCF time:  CPU 8.17 s  wall 8.18 s
 SCF   energy in the final basis set = -644.6744737324
 Total energy in the final basis set = -644.6744737324
 Analysis of SCF Wavefunction
 
 --------------------------------------------------------------
                    Orbital Energies (a.u.)
 --------------------------------------------------------------
 
 Alpha MOs
 -- Occupied --
-20.622 -20.621 -20.572 -20.570 -11.422 -11.416 -11.341 -11.279
-11.269 -11.267 -11.258 -11.255 -11.248  -1.493  -1.483  -1.389
 -1.378  -1.192  -1.073  -1.062  -1.022  -0.922  -0.875  -0.833
 -0.801  -0.734  -0.714  -0.699  -0.691  -0.674  -0.667  -0.644
 -0.636  -0.626  -0.590  -0.584  -0.576  -0.562  -0.537  -0.524
 -0.520  -0.484  -0.471  -0.463  -0.455  -0.366  -0.355
 -- Virtual --
  0.075   0.127   0.166   0.212   0.220   0.232   0.253   0.283
  0.292   0.313   0.318   0.329   0.347   0.370   0.404   0.420
  0.426   0.458   0.481   0.496   0.499   0.537   0.576   0.593
  0.708   0.714   0.736   0.747   0.753   0.759   0.787   0.798
  0.810   0.814   0.837   0.845   0.854   0.861   0.869   0.874
  0.890   0.924   0.944   0.951   0.961   0.991   1.028   1.046
  1.093   1.113   1.128   1.135   1.148   1.156   1.177   1.203
  1.212   1.222   1.227   1.233   1.258   1.266   1.272   1.286
  1.299   1.339   1.341   1.364   1.382   1.422   1.441   1.481
  1.491   1.532   1.562   1.591   1.703   1.720   1.760   1.794
  1.866   2.071   2.114   2.211   2.369   2.417
 --------------------------------------------------------------
 
          Ground-State Mulliken Net Atomic Charges

     Atom                 Charge (a.u.)
  ----------------------------------------
      1 C                    -0.159915
      2 C                    -0.207015
      3 C                    -0.209848
      4 C                    -0.166338
      5 C                    -0.518280
      6 C                    -0.135584
      7 C                     0.428113
      8 O                    -0.556715
      9 O                    -0.537377
     10 O                    -0.747397
     11 C                     0.803869
     12 C                     0.767264
     13 O                    -0.777006
     14 H                     0.447422
     15 H                     0.272554
     16 H                     0.230724
     17 H                     0.219143
     18 H                     0.222151
     19 H                     0.216396
     20 H                     0.204728
     21 H                     0.203111
  ----------------------------------------
  Sum of atomic charges =    -0.000000

 -----------------------------------------------------------------
                    Cartesian Multipole Moments
 -----------------------------------------------------------------
    Charge (ESU x 10^10)
                -0.0000
    Dipole Moment (Debye)
         X      -0.6480      Y       2.0620      Z      -2.1835
       Tot       3.0724
    Quadrupole Moments (Debye-Ang)
        XX     -59.4503     XY       9.3841     YY     -71.6847
        XZ       4.2955     YZ      -0.4607     ZZ     -84.0718
    Octapole Moments (Debye-Ang^2)
       XXX     -25.7324    XXY       8.0454    XYY     -29.3759
       YYY      17.4248    XXZ      -5.1415    XYZ       3.8083
       YYZ     -11.8520    XZZ       0.7728    YZZ     -12.3740
       ZZZ     -12.2402
    Hexadecapole Moments (Debye-Ang^3)
      XXXX   -1503.8587   XXXY       3.8774   XXYY    -422.5409
      XYYY     117.9424   YYYY    -999.2336   XXXZ      47.8271
      XXYZ      -0.2469   XYYZ       3.4574   YYYZ      25.2310
      XXZZ    -355.6304   XYZZ      -1.7534   YYZZ    -208.6837
      XZZZ      28.0474   YZZZ       7.4990   ZZZZ    -214.2645
 -----------------------------------------------------------------
 Calculating analytic gradient of the SCF energy
 Gradient of Coulomb and Exchange Energy
            1           2           3           4           5           6
    1  -9.8617842  -0.3651389 -11.9537387  -7.2801007   8.3319870  -0.9536098
    2   4.2788738 -12.2664826  -2.2928089  -9.8368258  -1.5084591   6.2783321
    3  -1.7562051   2.6165524  -1.6525421   0.2284664   0.6726010   0.4190631
            7           8           9          10          11          12
    1   1.6095740 -11.7608064   1.6783614  11.1497759   3.1628359   9.2805094
    2  -2.3555204  23.7815080  -3.0319781   4.7681377  -1.2288985  -1.4843046
    3   1.7939411  -4.7341351 -25.7823756   4.0421079   1.9890058   8.3909569
           13          14          15          16          17          18
    1   7.0293038   2.4796087  -3.8173853   2.7594628  -5.6391749  -2.7933838
    2  -5.2991163   6.1436358   4.9239594  -5.4528417  -0.3782328  -5.0261508
    3  12.2538163  -0.1900176  -1.2532726   1.4387769  -1.0148515   0.1126241
           19          20          21
    1   1.4901883   3.7551374   1.6983783
    2   3.6735078   0.1161968  -3.8025320
    3   2.8526909  -2.9112538   2.4840504
 Gradient of SCF Energy
            1           2           3           4           5           6
    1  -0.0036882   0.0006305  -0.0013082  -0.0004780  -0.0005482   0.0030006
    2  -0.0005643  -0.0022727   0.0008299  -0.0009334   0.0002205   0.0027692
    3  -0.0006476   0.0000787  -0.0006160   0.0006909  -0.0033466   0.0004795
            7           8           9          10          11          12
    1   0.0071285  -0.0012927  -0.0002744  -0.0005092   0.0048797  -0.0018949
    2  -0.0008868  -0.0011575  -0.0005590   0.0068535   0.0033041   0.0033023
    3   0.0034192   0.0016787   0.0049411  -0.0007937  -0.0031378   0.0026898
           13          14          15          16          17          18
    1  -0.0033934  -0.0037387   0.0025604   0.0000590   0.0017955   0.0010809
    2  -0.0031315  -0.0098989  -0.0006954   0.0020397   0.0000297   0.0011631
    3  -0.0098817   0.0002717   0.0007688  -0.0005057   0.0004019   0.0000407
           19          20          21
    1  -0.0008187  -0.0025514  -0.0006393
    2  -0.0021309  -0.0003834   0.0021018
    3   0.0010966   0.0011078   0.0012637
 Max gradient component =       9.899E-03
 RMS gradient           =       2.902E-03
 Gradient time:  CPU 3.70 s  wall 3.73 s
 Geometry Optimization Parameters
   NAtoms,    NIC,     NZ,  NCons,   NDum,   NFix, NCnnct, MaxDiis
       21     135       0       0       0       0       0       0

 Cartesian Hessian Update
 Hessian Updated using BFGS Update


** GEOMETRY OPTIMIZATION IN DELOCALIZED INTERNAL COORDINATES **
   Searching for a Minimum

   Optimization Cycle:   2

                       Coordinates (Angstroms)
     ATOM              X           Y           Z
      1  C         2.310724   -0.394783    0.168875
      2  C         0.880437    1.907907   -0.364950
      3  C         2.960728    0.825586    0.151535
      4  C         2.241518    1.980251   -0.117705
      5  C        -3.468859    0.603485   -0.233342
      6  C         0.941526   -0.487013   -0.078068
      7  C         0.236171    0.685225   -0.336558
      8  O         1.006891   -2.842833    0.235320
      9  O        -1.811994    0.646466    1.523462
     10  O        -0.962878   -1.951947   -0.286873
     11  C         0.363252   -1.845546   -0.031590
     12  C        -2.094155    0.642971    0.349679
     13  O        -1.134470    0.686159   -0.642085
     14  H        -1.268258   -2.865414   -0.230134
     15  H         2.860018   -1.292592    0.378126
     16  H         0.313456    2.792538   -0.582074
     17  H         4.015647    0.873724    0.347246
     18  H         2.737316    2.933136   -0.136534
     19  H        -3.564901   -0.266906   -0.869713
     20  H        -4.199060    0.550447    0.563172
     21  H        -3.646292    1.495155   -0.822527
   Point Group: c1    Number of degrees of freedom:    57


   Energy is   -644.674473732

 GETINT wrote B to file, NVib is           57
 Hessian Updated using BFGS Update

 54 Hessian modes will be used to form the next step
  Hessian Eigenvalues:
     0.009269    0.011180    0.011290    0.014933    0.016016    0.016988
     0.018630    0.021222    0.022050    0.022219    0.022471    0.022781
     0.022958    0.023080    0.023098    0.023277    0.074746    0.076717
     0.158668    0.159996    0.160000    0.160000    0.160000    0.172523
     0.220013    0.224899    0.241987    0.245981    0.249766    0.249991
     0.249993    0.249996    0.287590    0.324111    0.339844    0.341690
     0.344848    0.345275    0.348510    0.350625    0.351393    0.352021
     0.415196    0.419009    0.448982    0.452985    0.459643    0.465760
     0.468061    0.496047    0.508211    0.579662    0.933762    0.958819

 Minimum Search - Taking Simple RFO Step
 Searching for Lamda that Minimizes Along All modes
 Value Taken    Lamda =  -0.00271104
 Step Taken.  Stepsize is  0.280637

                             Maximum     Tolerance    Cnvgd?
         Gradient           0.008157      0.000300      NO
         Displacement       0.111893      0.001200      NO
         Energy change     -0.013270      0.000001      NO


 New Cartesian Coordinates Obtained by Inverse Iteration

 Displacement from previous Coordinates is:  0.960174
 ----------------------------------------------------
       Standard Nuclear Orientation (Angstroms)
    I     Atom         X            Y            Z
 ----------------------------------------------------
    1      C       2.300990    -0.390305     0.138535
    2      C       0.901374     1.946346    -0.330045
    3      C       2.974894     0.815405     0.105070
    4      C       2.270412     1.987806    -0.128971
    5      C      -3.435000     0.539543    -0.282426
    6      C       0.922221    -0.452730    -0.059145
    7      C       0.239925     0.735772    -0.299815
    8      O       0.951254    -2.812649     0.192495
    9      O      -1.827595     0.460109     1.515910
   10      O      -1.028965    -1.844926    -0.136941
   11      C       0.310342    -1.792049     0.029726
   12      C      -2.088093     0.562558     0.345454
   13      O      -1.118899     0.753963    -0.600960
   14      H      -1.359307    -2.736226    -0.078693
   15      H       2.823773    -1.303915     0.325214
   16      H       0.339769     2.835277    -0.525422
   17      H       4.033228     0.840472     0.263349
   18      H       2.780875     2.929201    -0.156845
   19      H      -3.472657    -0.254491    -1.013694
   20      H      -4.182004     0.383692     0.477664
   21      H      -3.619717     1.473164    -0.795198
 ----------------------------------------------------
 Molecular Point Group                 C1    NOp =  1
 Largest Abelian Subgroup              C1    NOp =  1
 Nuclear Repulsion Energy =   788.6448516887 hartrees
 There are       47 alpha and       47 beta electrons
 Applying Cartesian multipole field
    Component          Value
    ---------          -----
     (2,0,0)        1.00000E-11
     (0,2,0)        2.00000E-11
     (0,0,2)       -3.00000E-11
 Nucleus-field energy     =     0.0000000243 hartrees
 Requested basis set is 6-31G
 There are 55 shells and 133 basis functions
 A cutoff of  1.0D-11 yielded   1250 shell pairs
 There are      8222 function pairs
 Smallest overlap matrix eigenvalue = 4.95E-04
 Guess MOs from SCF MO coefficient file
Reading MOs from coefficient file
Reading MOs from coefficient file
 A restricted Hartree-Fock SCF calculation will be
 performed using Pulay DIIS extrapolation
 SCF converges when DIIS error is below 1.0E-08
Geometry optimization detected.  Setting ReadMinima to 0
Setting SaveMinima to 0
 ---------------------------------------
  Cycle       Energy         DIIS Error
 ---------------------------------------
    1    -644.6890508156      5.25E-03
    2    -644.6722288942      7.16E-04
    3    -644.6746444093      2.54E-04
    4    -644.6749605340      1.31E-04
    5    -644.6750155047      3.52E-05
    6    -644.6750244385      1.88E-05
    7    -644.6750267401      6.64E-06
    8    -644.6750270828      2.94E-06
    9    -644.6750271575      1.02E-06
   10    -644.6750271675      4.54E-07
   11    -644.6750271693      1.72E-07
   12    -644.6750271692      7.75E-08
   13    -644.6750271691      2.13E-08
   14    -644.6750271690      1.35E-08
   15    -644.6750271691      6.58E-09 Convergence criterion met
 ---------------------------------------
 SCF time:  CPU 8.19 s  wall 8.20 s
 SCF   energy in the final basis set = -644.6750271691
 Total energy in the final basis set = -644.6750271691
 Analysis of SCF Wavefunction
 
 --------------------------------------------------------------
                    Orbital Energies (a.u.)
 --------------------------------------------------------------
 
 Alpha MOs
 -- Occupied --
-20.623 -20.619 -20.570 -20.567 -11.423 -11.413 -11.340 -11.276
-11.269 -11.266 -11.257 -11.254 -11.245  -1.498  -1.487  -1.390
 -1.383  -1.192  -1.074  -1.065  -1.022  -0.926  -0.877  -0.837
 -0.804  -0.735  -0.720  -0.699  -0.693  -0.675  -0.668  -0.648
 -0.636  -0.626  -0.591  -0.585  -0.577  -0.561  -0.537  -0.522
 -0.520  -0.488  -0.471  -0.463  -0.453  -0.366  -0.354
 -- Virtual --
  0.075   0.128   0.172   0.214   0.220   0.234   0.256   0.285
  0.296   0.314   0.321   0.331   0.354   0.369   0.408   0.423
  0.431   0.458   0.488   0.498   0.501   0.539   0.578   0.601
  0.706   0.719   0.743   0.747   0.747   0.760   0.788   0.799
  0.813   0.817   0.842   0.848   0.856   0.862   0.868   0.874
  0.895   0.927   0.951   0.954   0.963   0.995   1.027   1.046
  1.098   1.116   1.130   1.142   1.146   1.154   1.177   1.210
  1.214   1.225   1.230   1.237   1.264   1.267   1.282   1.290
  1.327   1.344   1.349   1.361   1.384   1.436   1.443   1.480
  1.493   1.552   1.564   1.592   1.710   1.729   1.764   1.857
  1.892   2.071   2.124   2.231   2.389   2.412
 --------------------------------------------------------------
 
          Ground-State Mulliken Net Atomic Charges

     Atom                 Charge (a.u.)
  ----------------------------------------
      1 C                    -0.159573
      2 C                    -0.206898
      3 C                    -0.208678
      4 C                    -0.167152
      5 C                    -0.518126
      6 C                    -0.132508
      7 C                     0.426706
      8 O                    -0.556139
      9 O                    -0.544671
     10 O                    -0.753701
     11 C                     0.810072
     12 C                     0.787446
     13 O                    -0.785412
     14 H                     0.447415
     15 H                     0.271134
     16 H                     0.231395
     17 H                     0.218076
     18 H                     0.221011
     19 H                     0.213541
     20 H                     0.203066
     21 H                     0.202996
  ----------------------------------------
  Sum of atomic charges =     0.000000

 -----------------------------------------------------------------
                    Cartesian Multipole Moments
 -----------------------------------------------------------------
    Charge (ESU x 10^10)
                 0.0000
    Dipole Moment (Debye)
         X      -0.6272      Y       2.1346      Z      -2.1457
       Tot       3.0910
    Quadrupole Moments (Debye-Ang)
        XX     -59.7186     XY       9.3412     YY     -72.0608
        XZ       4.6700     YZ      -0.4073     ZZ     -83.7288
    Octapole Moments (Debye-Ang^2)
       XXX     -21.9314    XXY       6.1854    XYY     -27.9417
       YYY      19.6825    XXZ      -7.6147    XYZ       1.9538
       YYZ      -8.5965    XZZ       0.6768    YZZ     -11.8991
       ZZZ     -14.6148
    Hexadecapole Moments (Debye-Ang^3)
      XXXX   -1507.0851   XXXY     -13.9236   XXYY    -412.8423
      XYYY      90.9439   YYYY    -980.8708   XXXZ      49.6706
      XXYZ       3.1631   XYYZ       2.1849   YYYZ      27.5540
      XXZZ    -354.4509   XYZZ     -10.6237   YYZZ    -201.1047
      XZZZ      33.8136   YZZZ      20.6988   ZZZZ    -206.5359
 -----------------------------------------------------------------
 Calculating analytic gradient of the SCF energy
 Gradient of Coulomb and Exchange Energy
            1           2           3           4           5           6
    1 -10.0136454  -0.6155779 -12.0089640  -7.4799484   8.6167631  -0.9087007
    2   4.3440479 -12.7367733  -2.1373666  -9.7224141  -1.5157394   6.2313364
    3  -1.5241379   2.2376241  -1.2092918   0.2922362   0.7965102   0.6000042
            7           8           9          10          11          12
    1   1.4082805 -11.8028564   2.1556465  11.0592631   3.2755928   9.4964443
    2  -2.4660261  24.3107708  -1.2720309   4.3722800  -1.1595215  -1.9198830
    3   1.7634240  -3.1116108 -26.3264996   2.9974688   0.6004651   8.7384654
           13          14          15          16          17          18
    1   6.7404746   2.6902288  -3.6521268   2.7719057  -5.6799902  -2.8572864
    2  -6.8661461   6.2810777   5.0861046  -5.4675753  -0.2554584  -4.9863139
    3  12.0417405  -0.2664408  -1.1119386   1.2899434  -0.8221434   0.1640311
           19          20          21
    1   1.2285592   3.8468171   1.7291206
    2   3.3074910   0.5086163  -3.9364761
    3   3.4123383  -2.8485642   2.2863757
 Gradient of SCF Energy
            1           2           3           4           5           6
    1  -0.0000386  -0.0010543   0.0003381   0.0000917   0.0000629  -0.0005636
    2  -0.0008279  -0.0004141  -0.0000313   0.0005673   0.0007889  -0.0001504
    3  -0.0010035   0.0016254   0.0001926  -0.0002330  -0.0014622  -0.0035281
            7           8           9          10          11          12
    1   0.0041835   0.0015130   0.0012647  -0.0033791  -0.0012335  -0.0003699
    2   0.0030489  -0.0000437  -0.0014292   0.0008912   0.0000662  -0.0003913
    3   0.0014023  -0.0026067  -0.0034929  -0.0002337   0.0082485   0.0017195
           13          14          15          16          17          18
    1  -0.0022559   0.0018202  -0.0008102   0.0005711  -0.0009411  -0.0005303
    2  -0.0039559   0.0023547   0.0009481  -0.0006370  -0.0001483  -0.0006749
    3  -0.0006853  -0.0006848  -0.0001435   0.0000561   0.0000521  -0.0001450
           19          20          21
    1   0.0002621   0.0010070   0.0000623
    2   0.0005077   0.0000447  -0.0005139
    3   0.0005329  -0.0000127   0.0004022
 Max gradient component =       8.248E-03
 RMS gradient           =       1.769E-03
 Gradient time:  CPU 3.86 s  wall 3.86 s
 Geometry Optimization Parameters
   NAtoms,    NIC,     NZ,  NCons,   NDum,   NFix, NCnnct, MaxDiis
       21     135       0       0       0       0       0       0

 Cartesian Hessian Update
 Hessian Updated using BFGS Update


** GEOMETRY OPTIMIZATION IN DELOCALIZED INTERNAL COORDINATES **
   Searching for a Minimum

   Optimization Cycle:   3

                       Coordinates (Angstroms)
     ATOM              X           Y           Z
      1  C         2.300990   -0.390305    0.138535
      2  C         0.901374    1.946346   -0.330045
      3  C         2.974894    0.815405    0.105070
      4  C         2.270412    1.987806   -0.128971
      5  C        -3.435000    0.539543   -0.282426
      6  C         0.922221   -0.452730   -0.059145
      7  C         0.239925    0.735772   -0.299815
      8  O         0.951254   -2.812649    0.192495
      9  O        -1.827595    0.460109    1.515910
     10  O        -1.028965   -1.844926   -0.136941
     11  C         0.310342   -1.792049    0.029726
     12  C        -2.088093    0.562558    0.345454
     13  O        -1.118899    0.753963   -0.600960
     14  H        -1.359307   -2.736226   -0.078693
     15  H         2.823773   -1.303915    0.325214
     16  H         0.339769    2.835277   -0.525422
     17  H         4.033228    0.840472    0.263349
     18  H         2.780875    2.929201   -0.156845
     19  H        -3.472657   -0.254491   -1.013694
     20  H        -4.182004    0.383692    0.477664
     21  H        -3.619717    1.473164   -0.795198
   Point Group: c1    Number of degrees of freedom:    57


   Energy is   -644.675027169

 GETINT wrote B to file, NVib is           57
 Hessian Updated using BFGS Update

 56 Hessian modes will be used to form the next step
  Hessian Eigenvalues:
     0.009253    0.011040    0.011590    0.014609    0.015326    0.018382
     0.020008    0.021207    0.022148    0.022380    0.022750    0.022934
     0.022998    0.023092    0.023276    0.038565    0.072840    0.076716
     0.154833    0.159997    0.160000    0.160000    0.160000    0.160298
     0.172649    0.219796    0.224911    0.226574    0.245487    0.249856
     0.249991    0.249995    0.249999    0.278474    0.285744    0.329056
     0.339984    0.343610    0.345022    0.345803    0.349629    0.351252
     0.351865    0.353052    0.415225    0.421294    0.447239    0.455444
     0.462322    0.465736    0.477536    0.488849    0.509358    0.570728
     0.937621    0.958821

 Minimum Search - Taking Simple RFO Step
 Searching for Lamda that Minimizes Along All modes
 Value Taken    Lamda =  -0.00198515
 Step Taken.  Stepsize is  0.204975

                             Maximum     Tolerance    Cnvgd?
         Gradient           0.011854      0.000300      NO
         Displacement       0.129777      0.001200      NO
         Energy change     -0.000553      0.000001      NO


 New Cartesian Coordinates Obtained by Inverse Iteration

 Displacement from previous Coordinates is:  0.705646
 ----------------------------------------------------
       Standard Nuclear Orientation (Angstroms)
    I     Atom         X            Y            Z
 ----------------------------------------------------
    1      C       2.294925    -0.398972     0.137542
    2      C       0.895827     1.939868    -0.315161
    3      C       2.968970     0.806552     0.114767
    4      C       2.264815     1.980083    -0.114198
    5      C      -3.431524     0.524714    -0.266039
    6      C       0.915761    -0.463909    -0.065586
    7      C       0.231387     0.730209    -0.289334
    8      O       0.974369    -2.825336     0.163182
    9      O      -1.856233     0.704682     1.550678
   10      O      -1.010625    -1.889422    -0.202909
   11      C       0.323926    -1.815828    -0.026382
   12      C      -2.097685     0.648528     0.373338
   13      O      -1.124629     0.768456    -0.576701
   14      H      -1.330919    -2.780832    -0.139691
   15      H       2.816142    -1.316455     0.306675
   16      H       0.330997     2.828766    -0.498296
   17      H       4.027197     0.830750     0.270664
   18      H       2.774296     2.921810    -0.134399
   19      H      -3.440749    -0.349401    -0.900175
   20      H      -4.190107     0.449041     0.493201
   21      H      -3.619326     1.382710    -0.895913
 ----------------------------------------------------
 Molecular Point Group                 C1    NOp =  1
 Largest Abelian Subgroup              C1    NOp =  1
 Nuclear Repulsion Energy =   785.4335424295 hartrees
 There are       47 alpha and       47 beta electrons
 Applying Cartesian multipole field
    Component          Value
    ---------          -----
     (2,0,0)        1.00000E-11
     (0,2,0)        2.00000E-11
     (0,0,2)       -3.00000E-11
 Nucleus-field energy     =     0.0000000246 hartrees
 Requested basis set is 6-31G
 There are 55 shells and 133 basis functions
 A cutoff of  1.0D-11 yielded   1248 shell pairs
 There are      8217 function pairs
 Smallest overlap matrix eigenvalue = 4.95E-04
 Guess MOs from SCF MO coefficient file
Reading MOs from coefficient file
Reading MOs from coefficient file
 A restricted Hartree-Fock SCF calculation will be
 performed using Pulay DIIS extrapolation
 SCF converges when DIIS error is below 1.0E-08
Geometry optimization detected.  Setting ReadMinima to 0
Setting SaveMinima to 0
 ---------------------------------------
  Cycle       Energy         DIIS Error
 ---------------------------------------
    1    -644.6552098124      4.25E-03
    2    -644.6730180219      6.54E-04
    3    -644.6749921715      2.22E-04
    4    -644.6752394265      1.04E-04
    5    -644.6752761650      3.83E-05
    6    -644.6752833898      1.72E-05
    7    -644.6752855809      4.54E-06
    8    -644.6752856829      1.88E-06
    9    -644.6752857047      6.27E-07
   10    -644.6752857079      3.49E-07
   11    -644.6752857091      1.47E-07
   12    -644.6752857097      5.88E-08
   13    -644.6752857096      1.55E-08
   14    -644.6752857090      8.82E-09 Convergence criterion met
 ---------------------------------------
 SCF time:  CPU 7.88 s  wall 7.89 s
 SCF   energy in the final basis set = -644.6752857090
 Total energy in the final basis set = -644.6752857090
 Analysis of SCF Wavefunction
 
 --------------------------------------------------------------
                    Orbital Energies (a.u.)
 --------------------------------------------------------------
 
 Alpha MOs
 -- Occupied --
-20.626 -20.620 -20.571 -20.569 -11.425 -11.414 -11.341 -11.278
-11.269 -11.266 -11.256 -11.254 -11.244  -1.500  -1.491  -1.393
 -1.385  -1.192  -1.074  -1.066  -1.023  -0.927  -0.879  -0.838
 -0.806  -0.736  -0.719  -0.700  -0.694  -0.677  -0.669  -0.649
 -0.637  -0.626  -0.592  -0.587  -0.577  -0.562  -0.538  -0.524
 -0.520  -0.487  -0.472  -0.465  -0.455  -0.366  -0.354
 -- Virtual --
  0.074   0.128   0.169   0.212   0.219   0.234   0.257   0.286
  0.297   0.314   0.321   0.332   0.352   0.371   0.407   0.421
  0.429   0.458   0.483   0.499   0.500   0.541   0.577   0.599
  0.706   0.715   0.738   0.746   0.749   0.757   0.786   0.799
  0.813   0.816   0.841   0.847   0.856   0.861   0.867   0.874
  0.891   0.925   0.947   0.954   0.964   0.997   1.026   1.044
  1.095   1.116   1.129   1.138   1.145   1.158   1.178   1.210
  1.213   1.224   1.231   1.240   1.264   1.272   1.274   1.285
  1.304   1.340   1.347   1.363   1.384   1.432   1.441   1.486
  1.497   1.534   1.566   1.595   1.703   1.716   1.761   1.821
  1.891   2.071   2.124   2.221   2.368   2.414
 --------------------------------------------------------------
 
          Ground-State Mulliken Net Atomic Charges

     Atom                 Charge (a.u.)
  ----------------------------------------
      1 C                    -0.162352
      2 C                    -0.207697
      3 C                    -0.207451
      4 C                    -0.166214
      5 C                    -0.518701
      6 C                    -0.135260
      7 C                     0.434996
      8 O                    -0.555289
      9 O                    -0.536463
     10 O                    -0.746476
     11 C                     0.804564
     12 C                     0.771067
     13 O                    -0.785797
     14 H                     0.445983
     15 H                     0.271854
     16 H                     0.231781
     17 H                     0.218334
     18 H                     0.221215
     19 H                     0.215086
     20 H                     0.202334
     21 H                     0.204487
  ----------------------------------------
  Sum of atomic charges =     0.000000

 -----------------------------------------------------------------
                    Cartesian Multipole Moments
 -----------------------------------------------------------------
    Charge (ESU x 10^10)
                 0.0000
    Dipole Moment (Debye)
         X      -0.5674      Y       1.7598      Z      -2.2226
       Tot       2.8911
    Quadrupole Moments (Debye-Ang)
        XX     -60.1280     XY      10.0629     YY     -72.2680
        XZ       4.7680     YZ      -1.2301     ZZ     -83.8971
    Octapole Moments (Debye-Ang^2)
       XXX     -20.9488    XXY       4.5880    XYY     -27.4230
       YYY      15.3802    XXZ      -7.9699    XYZ       3.8763
       YYZ      -9.8489    XZZ       1.2754    YZZ     -14.5175
       ZZZ     -15.3753
    Hexadecapole Moments (Debye-Ang^3)
      XXXX   -1509.5803   XXXY       0.3659   XXYY    -419.5636
      XYYY     107.6730   YYYY    -998.0839   XXXZ      52.8730
      XXYZ      -4.7179   XYYZ       6.6009   YYYZ      13.7171
      XXZZ    -355.8706   XYZZ      -3.6503   YYZZ    -206.6799
      XZZZ      37.5509   YZZZ       2.4771   ZZZZ    -210.4590
 -----------------------------------------------------------------
 Calculating analytic gradient of the SCF energy
 Gradient of Coulomb and Exchange Energy
            1           2           3           4           5           6
    1  -9.8436648  -0.6993516 -11.9965654  -7.5384137   8.6289166  -0.6960799
    2   4.3162196 -12.6237268  -2.1228131  -9.6562677  -1.3555835   6.3235356
    3  -1.6001484   2.2838743  -1.3324523   0.3001458   0.7172677   0.2014081
            7           8           9          10          11          12
    1   1.4252310 -11.8804886   2.1955732  11.1783925   3.2746321   9.1459601
    2  -2.0981110  24.0245692  -3.9604006   4.4145532  -1.1488338  -0.5161136
    3   1.6007224  -3.3388770 -26.0287585   3.1934940   1.5117599   8.4376786
           13          14          15          16          17          18
    1   6.7889150   2.6383175  -3.6305015   2.8063646  -5.6836656  -2.8540020
    2  -6.5394439   6.2473098   5.1183079  -5.4888172  -0.2517523  -4.9949124
    3  11.8316655  -0.3062611  -1.0018537   1.2302291  -0.8046690   0.1185897
           19          20          21
    1   1.1206572   3.8763622   1.7434112
    2   3.6666379   0.2264707  -3.5808280
    3   3.0225919  -2.8490679   2.8126611
 Gradient of SCF Energy
            1           2           3           4           5           6
    1   0.0006832  -0.0023667   0.0008417   0.0005927   0.0007207  -0.0005059
    2  -0.0007572   0.0006137   0.0000373   0.0002769   0.0015832  -0.0012682
    3   0.0004372  -0.0003325   0.0001775  -0.0004023   0.0000931   0.0007060
            7           8           9          10          11          12
    1  -0.0001152   0.0005520  -0.0005804  -0.0010007  -0.0011998   0.0016492
    2   0.0012835   0.0011416   0.0026449  -0.0058009  -0.0022608  -0.0043328
    3   0.0004023   0.0007820  -0.0045187   0.0000285  -0.0018576   0.0026668
           13          14          15          16          17          18
    1  -0.0010633   0.0026212  -0.0013775   0.0003563  -0.0012498  -0.0007999
    2   0.0023657   0.0055942   0.0008140  -0.0010772  -0.0000618  -0.0008532
    3   0.0029602  -0.0001181  -0.0004982   0.0002146  -0.0002696   0.0000764
           19          20          21
    1   0.0004748   0.0016339   0.0001336
    2   0.0010961   0.0001698  -0.0012089
    3  -0.0000886  -0.0003561  -0.0001030
 Max gradient component =       5.801E-03
 RMS gradient           =       1.717E-03
 Gradient time:  CPU 3.81 s  wall 3.82 s
 Geometry Optimization Parameters
   NAtoms,    NIC,     NZ,  NCons,   NDum,   NFix, NCnnct, MaxDiis
       21     135       0       0       0       0       0       0

 Cartesian Hessian Update
 Hessian Updated using BFGS Update


** GEOMETRY OPTIMIZATION IN DELOCALIZED INTERNAL COORDINATES **
   Searching for a Minimum

   Optimization Cycle:   4

                       Coordinates (Angstroms)
     ATOM              X           Y           Z
      1  C         2.294925   -0.398972    0.137542
      2  C         0.895827    1.939868   -0.315161
      3  C         2.968970    0.806552    0.114767
      4  C         2.264815    1.980083   -0.114198
      5  C        -3.431524    0.524714   -0.266039
      6  C         0.915761   -0.463909   -0.065586
      7  C         0.231387    0.730209   -0.289334
      8  O         0.974369   -2.825336    0.163182
      9  O        -1.856233    0.704682    1.550678
     10  O        -1.010625   -1.889422   -0.202909
     11  C         0.323926   -1.815828   -0.026382
     12  C        -2.097685    0.648528    0.373338
     13  O        -1.124629    0.768456   -0.576701
     14  H        -1.330919   -2.780832   -0.139691
     15  H         2.816142   -1.316455    0.306675
     16  H         0.330997    2.828766   -0.498296
     17  H         4.027197    0.830750    0.270664
     18  H         2.774296    2.921810   -0.134399
     19  H        -3.440749   -0.349401   -0.900175
     20  H        -4.190107    0.449041    0.493201
     21  H        -3.619326    1.382710   -0.895913
   Point Group: c1    Number of degrees of freedom:    57


   Energy is   -644.675285709

 GETINT wrote B to file, NVib is           57
 Hessian Updated using BFGS Update

 57 Hessian modes will be used to form the next step
  Hessian Eigenvalues:
     0.009248    0.011360    0.011621    0.014812    0.015775    0.018437
     0.020765    0.021225    0.022152    0.022420    0.022748    0.022940
     0.023006    0.023089    0.023276    0.048649    0.073177    0.076722
     0.156329    0.159765    0.159997    0.160000    0.160000    0.160000
     0.160033    0.172362    0.219973    0.225110    0.233666    0.244829
     0.248039    0.249861    0.249992    0.249998    0.280465    0.321601
     0.328143    0.339584    0.344662    0.345100    0.347457    0.349947
     0.351291    0.351958    0.354738    0.415158    0.426263    0.440506
     0.457048    0.465716    0.466836    0.467664    0.486789    0.505317
     0.572460    0.933633    0.958938

 Minimum Search - Taking Simple RFO Step
 Searching for Lamda that Minimizes Along All modes
 Value Taken    Lamda =  -0.00092992
 Step Taken.  Stepsize is  0.151839

                             Maximum     Tolerance    Cnvgd?
         Gradient           0.006318      0.000300      NO
         Displacement       0.107693      0.001200      NO
         Energy change     -0.000259      0.000001      NO


 New Cartesian Coordinates Obtained by Inverse Iteration

 Displacement from previous Coordinates is:  0.315538
 ----------------------------------------------------
       Standard Nuclear Orientation (Angstroms)
    I     Atom         X            Y            Z
 ----------------------------------------------------
    1      C       2.296906    -0.395236     0.145571
    2      C       0.912500     1.946811    -0.335934
    3      C       2.976926     0.807648     0.122641
    4      C       2.280095     1.982772    -0.120147
    5      C      -3.437539     0.510368    -0.261924
    6      C       0.918276    -0.454028    -0.070886
    7      C       0.238004     0.739813    -0.306701
    8      O       0.942664    -2.818623     0.176980
    9      O      -1.840939     0.619021     1.543803
   10      O      -1.025872    -1.856661    -0.197639
   11      C       0.311729    -1.799622    -0.028780
   12      C      -2.094571     0.650524     0.365179
   13      O      -1.122364     0.780744    -0.593289
   14      H      -1.363336    -2.748667    -0.125979
   15      H       2.818399    -1.312973     0.329111
   16      H       0.355440     2.841143    -0.528659
   17      H       4.035734     0.828613     0.290664
   18      H       2.796564     2.923035    -0.140974
   19      H      -3.433773    -0.341383    -0.928475
   20      H      -4.188215     0.381938     0.501845
   21      H      -3.659810     1.390779    -0.851146
 ----------------------------------------------------
 Molecular Point Group                 C1    NOp =  1
 Largest Abelian Subgroup              C1    NOp =  1
 Nuclear Repulsion Energy =   785.6484524060 hartrees
 There are       47 alpha and       47 beta electrons
 Applying Cartesian multipole field
    Component          Value
    ---------          -----
     (2,0,0)        1.00000E-11
     (0,2,0)        2.00000E-11
     (0,0,2)       -3.00000E-11
 Nucleus-field energy     =     0.0000000245 hartrees
 Requested basis set is 6-31G
 There are 55 shells and 133 basis functions
 A cutoff of  1.0D-11 yielded   1247 shell pairs
 There are      8216 function pairs
 Smallest overlap matrix eigenvalue = 4.99E-04
 Guess MOs from SCF MO coefficient file
Reading MOs from coefficient file
Reading MOs from coefficient file
 A restricted Hartree-Fock SCF calculation will be
 performed using Pulay DIIS extrapolation
 SCF converges when DIIS error is below 1.0E-08
Geometry optimization detected.  Setting ReadMinima to 0
Setting SaveMinima to 0
 ---------------------------------------
  Cycle       Energy         DIIS Error
 ---------------------------------------
    1    -644.6391737175      2.17E-03
    2    -644.6747235460      3.44E-04
    3    -644.6752569015      1.20E-04
    4    -644.6753191449      6.46E-05
    5    -644.6753308853      1.72E-05
    6    -644.6753324377      8.44E-06
    7    -644.6753329350      2.70E-06
    8    -644.6753329664      8.00E-07
    9    -644.6753329702      2.27E-07
   10    -644.6753329706      1.21E-07
   11    -644.6753329706      5.47E-08
   12    -644.6753329709      2.55E-08
   13    -644.6753329704      1.69E-08
   14    -644.6753329705      1.07E-08
   15    -644.6753329703      2.57E-09 Convergence criterion met
 ---------------------------------------
 SCF time:  CPU 7.93 s  wall 7.95 s
 SCF   energy in the final basis set = -644.6753329703
 Total energy in the final basis set = -644.6753329703
 Analysis of SCF Wavefunction
 
 --------------------------------------------------------------
                    Orbital Energies (a.u.)
 --------------------------------------------------------------
 
 Alpha MOs
 -- Occupied --
-20.624 -20.620 -20.570 -20.570 -11.424 -11.415 -11.342 -11.278
-11.269 -11.267 -11.257 -11.255 -11.245  -1.498  -1.487  -1.391
 -1.382  -1.191  -1.073  -1.064  -1.022  -0.925  -0.877  -0.837
 -0.804  -0.735  -0.718  -0.699  -0.693  -0.675  -0.668  -0.648
 -0.636  -0.626  -0.591  -0.585  -0.576  -0.562  -0.538  -0.523
 -0.519  -0.486  -0.471  -0.464  -0.455  -0.366  -0.354
 -- Virtual --
  0.074   0.127   0.168   0.211   0.220   0.233   0.257   0.285
  0.295   0.313   0.319   0.330   0.352   0.371   0.406   0.420
  0.429   0.457   0.484   0.498   0.499   0.539   0.577   0.598
  0.705   0.716   0.739   0.746   0.748   0.758   0.786   0.797
  0.813   0.815   0.841   0.845   0.855   0.861   0.868   0.873
  0.892   0.924   0.946   0.952   0.961   0.997   1.025   1.045
  1.093   1.115   1.129   1.136   1.145   1.157   1.175   1.208
  1.212   1.223   1.230   1.237   1.263   1.272   1.277   1.290
  1.307   1.341   1.345   1.361   1.384   1.434   1.437   1.483
  1.492   1.542   1.566   1.592   1.705   1.713   1.759   1.836
  1.889   2.071   2.118   2.222   2.375   2.416
 --------------------------------------------------------------
 
          Ground-State Mulliken Net Atomic Charges

     Atom                 Charge (a.u.)
  ----------------------------------------
      1 C                    -0.160307
      2 C                    -0.209003
      3 C                    -0.209159
      4 C                    -0.165683
      5 C                    -0.518447
      6 C                    -0.134665
      7 C                     0.433874
      8 O                    -0.555949
      9 O                    -0.539349
     10 O                    -0.751167
     11 C                     0.806354
     12 C                     0.777671
     13 O                    -0.786994
     14 H                     0.447922
     15 H                     0.271709
     16 H                     0.231225
     17 H                     0.218844
     18 H                     0.221694
     19 H                     0.217055
     20 H                     0.203123
     21 H                     0.201251
  ----------------------------------------
  Sum of atomic charges =    -0.000000

 -----------------------------------------------------------------
                    Cartesian Multipole Moments
 -----------------------------------------------------------------
    Charge (ESU x 10^10)
                -0.0000
    Dipole Moment (Debye)
         X      -0.5776      Y       1.9317      Z      -2.2026
       Tot       2.9860
    Quadrupole Moments (Debye-Ang)
        XX     -59.6152     XY       9.7669     YY     -72.2806
        XZ       4.6775     YZ      -0.7879     ZZ     -83.9393
    Octapole Moments (Debye-Ang^2)
       XXX     -21.5994    XXY       4.3269    XYY     -27.3567
       YYY      16.4919    XXZ      -7.0145    XYZ       3.0626
       YYZ      -9.2926    XZZ       1.2208    YZZ     -13.9887
       ZZZ     -14.4578
    Hexadecapole Moments (Debye-Ang^3)
      XXXX   -1509.5099   XXXY      -6.4663   XXYY    -415.5706
      XYYY      97.7063   YYYY    -992.3402   XXXZ      52.3319
      XXYZ      -1.8312   XYYZ       4.7475   YYYZ      18.6743
      XXZZ    -356.7377   XYZZ      -7.0641   YYZZ    -204.7531
      XZZZ      35.9262   YZZZ       8.5588   ZZZZ    -211.2376
 -----------------------------------------------------------------
 Calculating analytic gradient of the SCF energy
 Gradient of Coulomb and Exchange Energy
            1           2           3           4           5           6
    1  -9.8156068  -0.7099538 -12.0130785  -7.5389009   8.6217914  -0.8258861
    2   4.3925605 -12.4864500  -2.0809740  -9.6526353  -1.1622021   6.2243170
    3  -1.6577435   2.4452752  -1.4239040   0.2594298   0.6434257   0.2036161
            7           8           9          10          11          12
    1   1.4309552 -11.5322721   2.1574659  11.0288161   3.1003636   9.1663991
    2  -2.3030073  24.2466714  -2.6341715   4.4300584  -1.2774450  -2.0608456
    3   1.7466134  -3.5575706 -26.1305088   3.2359467   1.8108532   8.5628907
           13          14          15          16          17          18
    1   6.8197411   2.7442426  -3.6417428   2.7409481  -5.6708313  -2.8899221
    2  -6.6070950   6.1790938   5.0873339  -5.4896081  -0.2367775  -4.9646483
    3  11.8705099  -0.3452935  -1.0926193   1.2785023  -0.8652631   0.1210064
           19          20          21
    1   1.1130990   3.8789146   1.8354576
    2   3.6047840   0.4427163  -3.6516755
    3   3.1653359  -2.8342377   2.5637351
 Gradient of SCF Energy
            1           2           3           4           5           6
    1   0.0000032  -0.0000729  -0.0001402   0.0004917   0.0002578  -0.0002904
    2   0.0001834  -0.0000445   0.0004813  -0.0003159  -0.0036668   0.0001269
    3   0.0003700  -0.0004378  -0.0002025   0.0003371   0.0004351   0.0013583
            7           8           9          10          11          12
    1  -0.0000309  -0.0010642  -0.0000841   0.0010121   0.0009902  -0.0007500
    2  -0.0005801  -0.0001225  -0.0034388   0.0008653   0.0000123   0.0106783
    3   0.0000097   0.0020091   0.0018770   0.0014031  -0.0054322  -0.0005115
           13          14          15          16          17          18
    1   0.0002909  -0.0009588   0.0005078  -0.0001559   0.0005398   0.0003184
    2  -0.0025126  -0.0016229  -0.0003973   0.0004007   0.0000547   0.0003787
    3  -0.0012270   0.0001026   0.0001225  -0.0000141  -0.0000173   0.0000683
           19          20          21
    1  -0.0008303  -0.0007309   0.0006966
    2  -0.0003886  -0.0004109   0.0003195
    3  -0.0006003   0.0000289   0.0003210
 Max gradient component =       1.068E-02
 RMS gradient           =       1.790E-03
 Gradient time:  CPU 3.73 s  wall 3.74 s
 Geometry Optimization Parameters
   NAtoms,    NIC,     NZ,  NCons,   NDum,   NFix, NCnnct, MaxDiis
       21     135       0       0       0       0       0       0

 Cartesian Hessian Update
 Hessian Updated using BFGS Update


** GEOMETRY OPTIMIZATION IN DELOCALIZED INTERNAL COORDINATES **
   Searching for a Minimum

   Optimization Cycle:   5

                       Coordinates (Angstroms)
     ATOM              X           Y           Z
      1  C         2.296906   -0.395236    0.145571
      2  C         0.912500    1.946811   -0.335934
      3  C         2.976926    0.807648    0.122641
      4  C         2.280095    1.982772   -0.120147
      5  C        -3.437539    0.510368   -0.261924
      6  C         0.918276   -0.454028   -0.070886
      7  C         0.238004    0.739813   -0.306701
      8  O         0.942664   -2.818623    0.176980
      9  O        -1.840939    0.619021    1.543803
     10  O        -1.025872   -1.856661   -0.197639
     11  C         0.311729   -1.799622   -0.028780
     12  C        -2.094571    0.650524    0.365179
     13  O        -1.122364    0.780744   -0.593289
     14  H        -1.363336   -2.748667   -0.125979
     15  H         2.818399   -1.312973    0.329111
     16  H         0.355440    2.841143   -0.528659
     17  H         4.035734    0.828613    0.290664
     18  H         2.796564    2.923035   -0.140974
     19  H        -3.433773   -0.341383   -0.928475
     20  H        -4.188215    0.381938    0.501845
     21  H        -3.659810    1.390779   -0.851146
   Point Group: c1    Number of degrees of freedom:    57


   Energy is   -644.675332970

 GETINT wrote B to file, NVib is           57
 Hessian Updated using BFGS Update

 57 Hessian modes will be used to form the next step
  Hessian Eigenvalues:
     0.009224    0.011503    0.014399    0.014733    0.018149    0.019268
     0.021169    0.022132    0.022349    0.022746    0.022927    0.022980
     0.023073    0.023274    0.031113    0.045471    0.072892    0.076970
     0.155042    0.159589    0.159997    0.160000    0.160000    0.160009
     0.165108    0.173417    0.219952    0.225250    0.233580    0.244264
     0.248937    0.249932    0.249992    0.254393    0.279502    0.306047
     0.324177    0.339813    0.342779    0.344940    0.345349    0.348533
     0.350488    0.351369    0.351959    0.414910    0.423460    0.444503
     0.455432    0.461834    0.465939    0.469095    0.486247    0.501120
     0.570709    0.935037    0.958783

 Minimum Search - Taking Simple RFO Step
 Searching for Lamda that Minimizes Along All modes
 Value Taken    Lamda =  -0.00101803
 Step Taken.  Stepsize is  0.181026

                             Maximum     Tolerance    Cnvgd?
         Gradient           0.004179      0.000300      NO
         Displacement       0.096193      0.001200      NO
         Energy change     -0.000047      0.000001      NO


 New Cartesian Coordinates Obtained by Inverse Iteration

 Displacement from previous Coordinates is:  0.419398
 ----------------------------------------------------
       Standard Nuclear Orientation (Angstroms)
    I     Atom         X            Y            Z
 ----------------------------------------------------
    1      C       2.307943    -0.388939     0.159654
    2      C       0.903608     1.934303    -0.352126
    3      C       2.976603     0.819971     0.127785
    4      C       2.269607     1.985772    -0.130101
    5      C      -3.453962     0.551085    -0.258678
    6      C       0.930726    -0.461349    -0.060663
    7      C       0.238795     0.721161    -0.313027
    8      O       0.968025    -2.827917     0.177962
    9      O      -1.838521     0.535173     1.534846
   10      O      -1.004593    -1.874136    -0.199906
   11      C       0.329593    -1.807980     0.000691
   12      C      -2.095826     0.579635     0.356290
   13      O      -1.124330     0.742186    -0.602745
   14      H      -1.339356    -2.772521    -0.145907
   15      H       2.839912    -1.298616     0.359259
   16      H       0.340604     2.823123    -0.558000
   17      H       4.035060     0.852886     0.302387
   18      H       2.778528     2.930900    -0.159107
   19      H      -3.514664    -0.282683    -0.945559
   20      H      -4.205072     0.451268     0.510699
   21      H      -3.625863     1.462693    -0.818492
 ----------------------------------------------------
 Molecular Point Group                 C1    NOp =  1
 Largest Abelian Subgroup              C1    NOp =  1
 Nuclear Repulsion Energy =   785.4865104153 hartrees
 There are       47 alpha and       47 beta electrons
 Applying Cartesian multipole field
    Component          Value
    ---------          -----
     (2,0,0)        1.00000E-11
     (0,2,0)        2.00000E-11
     (0,0,2)       -3.00000E-11
 Nucleus-field energy     =     0.0000000245 hartrees
 Requested basis set is 6-31G
 There are 55 shells and 133 basis functions
 A cutoff of  1.0D-11 yielded   1247 shell pairs
 There are      8216 function pairs
 Smallest overlap matrix eigenvalue = 4.99E-04
 Guess MOs from SCF MO coefficient file
Reading MOs from coefficient file
Reading MOs from coefficient file
 A restricted Hartree-Fock SCF calculation will be
 performed using Pulay DIIS extrapolation
 SCF converges when DIIS error is below 1.0E-08
Geometry optimization detected.  Setting ReadMinima to 0
Setting SaveMinima to 0
 ---------------------------------------
  Cycle       Energy         DIIS Error
 ---------------------------------------
    1    -644.6615563545      1.68E-03
    2    -644.6749371368      2.68E-04
    3    -644.6752883446      9.11E-05
    4    -644.6753326020      4.39E-05
    5    -644.6753385421      1.29E-05
    6    -644.6753398913      6.40E-06
    7    -644.6753401536      2.49E-06
    8    -644.6753402090      1.08E-06
    9    -644.6753402192      3.97E-07
   10    -644.6753402210      1.61E-07
   11    -644.6753402213      6.17E-08
   12    -644.6753402217      2.33E-08
   13    -644.6753402213      8.89E-09 Convergence criterion met
 ---------------------------------------
 SCF time:  CPU 7.18 s  wall 7.20 s
 SCF   energy in the final basis set = -644.6753402213
 Total energy in the final basis set = -644.6753402213
 Analysis of SCF Wavefunction
 
 --------------------------------------------------------------
                    Orbital Energies (a.u.)
 --------------------------------------------------------------
 
 Alpha MOs
 -- Occupied --
-20.623 -20.620 -20.570 -20.569 -11.423 -11.416 -11.342 -11.278
-11.269 -11.267 -11.258 -11.255 -11.247  -1.496  -1.485  -1.390
 -1.381  -1.191  -1.073  -1.063  -1.022  -0.924  -0.876  -0.836
 -0.803  -0.734  -0.718  -0.699  -0.692  -0.674  -0.667  -0.647
 -0.635  -0.626  -0.591  -0.584  -0.577  -0.561  -0.538  -0.522
 -0.520  -0.486  -0.471  -0.463  -0.454  -0.366  -0.354
 -- Virtual --
  0.074   0.127   0.169   0.211   0.220   0.232   0.255   0.284
  0.294   0.313   0.320   0.329   0.349   0.371   0.405   0.421
  0.429   0.458   0.484   0.498   0.498   0.538   0.577   0.599
  0.705   0.717   0.739   0.746   0.749   0.759   0.788   0.799
  0.812   0.814   0.841   0.847   0.855   0.861   0.867   0.874
  0.893   0.926   0.949   0.951   0.960   0.991   1.026   1.046
  1.094   1.114   1.128   1.139   1.143   1.155   1.177   1.206
  1.212   1.224   1.228   1.237   1.262   1.266   1.279   1.288
  1.313   1.341   1.343   1.361   1.383   1.432   1.441   1.481
  1.492   1.545   1.562   1.590   1.706   1.723   1.761   1.835
  1.883   2.071   2.118   2.225   2.379   2.416
 --------------------------------------------------------------
 
          Ground-State Mulliken Net Atomic Charges

     Atom                 Charge (a.u.)
  ----------------------------------------
      1 C                    -0.158180
      2 C                    -0.210279
      3 C                    -0.210471
      4 C                    -0.165434
      5 C                    -0.519120
      6 C                    -0.133545
      7 C                     0.432757
      8 O                    -0.556476
      9 O                    -0.542336
     10 O                    -0.754690
     11 C                     0.807224
     12 C                     0.783515
     13 O                    -0.786942
     14 H                     0.449093
     15 H                     0.271561
     16 H                     0.231012
     17 H                     0.218974
     18 H                     0.221906
     19 H                     0.213107
     20 H                     0.204336
     21 H                     0.203990
  ----------------------------------------
  Sum of atomic charges =    -0.000000

 -----------------------------------------------------------------
                    Cartesian Multipole Moments
 -----------------------------------------------------------------
    Charge (ESU x 10^10)
                 0.0000
    Dipole Moment (Debye)
         X      -0.6389      Y       2.0567      Z      -2.1468
       Tot       3.0409
    Quadrupole Moments (Debye-Ang)
        XX     -59.5051     XY       9.6048     YY     -72.1687
        XZ       4.7496     YZ      -0.6591     ZZ     -83.9122
    Octapole Moments (Debye-Ang^2)
       XXX     -23.4452    XXY       6.4923    XYY     -28.4287
       YYY      19.0598    XXZ      -6.8219    XYZ       2.3048
       YYZ      -9.3629    XZZ       1.0050    YZZ     -12.3296
       ZZZ     -14.1884
    Hexadecapole Moments (Debye-Ang^3)
      XXXX   -1511.4277   XXXY      -8.1109   XXYY    -417.1782
      XYYY     100.1248   YYYY    -989.7854   XXXZ      51.6479
      XXYZ       0.9101   XYYZ       4.0594   YYYZ      23.2237
      XXZZ    -357.4061   XYZZ      -7.9883   YYZZ    -203.5294
      XZZZ      34.1207   YZZZ      14.0826   ZZZZ    -211.1795
 -----------------------------------------------------------------
 Calculating analytic gradient of the SCF energy
 Gradient of Coulomb and Exchange Energy
            1           2           3           4           5           6
    1  -9.8670346  -0.6076046 -11.9999998  -7.4341246   8.5581628  -0.9515203
    2   4.3273755 -12.4327137  -2.2135076  -9.7400707  -1.5338943   6.1386694
    3  -1.7384145   2.5931089  -1.4420922   0.2905821   0.6221791   0.3345888
            7           8           9          10          11          12
    1   1.4595997 -11.6911235   2.1672940  10.9402198   3.2065139   9.1951740
    2  -2.3167503  24.2573877  -2.1358065   4.5337647  -1.3425468  -1.2672467
    3   1.8091166  -3.2971932 -26.1366599   3.4086417   0.9817585   8.7102938
           13          14          15          16          17          18
    1   6.8788791   2.7169413  -3.7035893   2.7667679  -5.6598164  -2.8518711
    2  -6.6429178   6.1785825   5.0155206  -5.4464973  -0.3001949  -4.9820458
    3  11.8976873  -0.2195421  -1.1943493   1.3525203  -0.9031409   0.1661592
           19          20          21
    1   1.3128931   3.8733384   1.6909002
    2   3.4674001   0.2827876  -3.8472957
    3   3.1505868  -2.8325192   2.4466881
 Gradient of SCF Energy
            1           2           3           4           5           6
    1  -0.0006466   0.0017318  -0.0008748   0.0001082  -0.0011233   0.0004701
    2   0.0006259  -0.0008342   0.0004789  -0.0004682   0.0017173   0.0007779
    3  -0.0005558   0.0003561  -0.0001653   0.0005993   0.0001730  -0.0020618
            7           8           9          10          11          12
    1   0.0011389  -0.0006171  -0.0000127   0.0021297   0.0003373  -0.0008167
    2  -0.0000531  -0.0012663   0.0013316   0.0045544   0.0028379  -0.0051102
    3  -0.0000941  -0.0021477   0.0042523  -0.0016562   0.0055353  -0.0022756
           13          14          15          16          17          18
    1   0.0001430  -0.0028297   0.0013843  -0.0003177   0.0012767   0.0008276
    2  -0.0008649  -0.0053802  -0.0008037   0.0010642   0.0000741   0.0008655
    3  -0.0032291   0.0001124   0.0005208  -0.0001888   0.0002209  -0.0000342
           19          20          21
    1   0.0002946  -0.0017901  -0.0008133
    2  -0.0008021   0.0000365   0.0012187
    3   0.0003502   0.0003358  -0.0000476
 Max gradient component =       5.535E-03
 RMS gradient           =       1.800E-03
 Gradient time:  CPU 3.80 s  wall 3.81 s
 Geometry Optimization Parameters
   NAtoms,    NIC,     NZ,  NCons,   NDum,   NFix, NCnnct, MaxDiis
       21     135       0       0       0       0       0       0

 Cartesian Hessian Update
 Hessian Updated using BFGS Update


** GEOMETRY OPTIMIZATION IN DELOCALIZED INTERNAL COORDINATES **
   Searching for a Minimum

   Optimization Cycle:   6

                       Coordinates (Angstroms)
     ATOM              X           Y           Z
      1  C         2.307943   -0.388939    0.159654
      2  C         0.903608    1.934303   -0.352126
      3  C         2.976603    0.819971    0.127785
      4  C         2.269607    1.985772   -0.130101
      5  C        -3.453962    0.551085   -0.258678
      6  C         0.930726   -0.461349   -0.060663
      7  C         0.238795    0.721161   -0.313027
      8  O         0.968025   -2.827917    0.177962
      9  O        -1.838521    0.535173    1.534846
     10  O        -1.004593   -1.874136   -0.199906
     11  C         0.329593   -1.807980    0.000691
     12  C        -2.095826    0.579635    0.356290
     13  O        -1.124330    0.742186   -0.602745
     14  H        -1.339356   -2.772521   -0.145907
     15  H         2.839912   -1.298616    0.359259
     16  H         0.340604    2.823123   -0.558000
     17  H         4.035060    0.852886    0.302387
     18  H         2.778528    2.930900   -0.159107
     19  H        -3.514664   -0.282683   -0.945559
     20  H        -4.205072    0.451268    0.510699
     21  H        -3.625863    1.462693   -0.818492
   Point Group: c1    Number of degrees of freedom:    57


   Energy is   -644.675340221

 GETINT wrote B to file, NVib is           57
 Hessian Updated using BFGS Update

 57 Hessian modes will be used to form the next step
  Hessian Eigenvalues:
     0.009205    0.011495    0.014207    0.015649    0.018316    0.020375
     0.021236    0.022154    0.022415    0.022747    0.022938    0.023002
     0.023093    0.023275    0.041941    0.057208    0.073172    0.077352
     0.156577    0.159915    0.159994    0.159999    0.160000    0.160022
     0.167173    0.172529    0.220004    0.225251    0.234432    0.244620
     0.248601    0.249768    0.249992    0.250134    0.280350    0.317100
     0.324261    0.340185    0.344198    0.344745    0.345915    0.348321
     0.350505    0.351377    0.351958    0.415103    0.424121    0.445087
     0.456570    0.461699    0.465903    0.467468    0.488791    0.502852
     0.571326    0.933251    0.958842

 Minimum Search - Taking Simple RFO Step
 Searching for Lamda that Minimizes Along All modes
 Value Taken    Lamda =  -0.00078927
 Step Taken.  Stepsize is  0.098036

                             Maximum     Tolerance    Cnvgd?
         Gradient           0.007000      0.000300      NO
         Displacement       0.044996      0.001200      NO
         Energy change     -0.000007      0.000001      NO


 New Cartesian Coordinates Obtained by Inverse Iteration

 Displacement from previous Coordinates is:  0.256135
 ----------------------------------------------------
       Standard Nuclear Orientation (Angstroms)
    I     Atom         X            Y            Z
 ----------------------------------------------------
    1      C       2.297544    -0.392702     0.144276
    2      C       0.903390     1.944458    -0.331351
    3      C       2.973198     0.811572     0.115570
    4      C       2.271258     1.984358    -0.125428
    5      C      -3.437334     0.531858    -0.272383
    6      C       0.919047    -0.455620    -0.063201
    7      C       0.235060     0.735615    -0.298495
    8      O       0.963069    -2.817633     0.175430
    9      O      -1.843203     0.557079     1.538432
   10      O      -1.018826    -1.866274    -0.173102
   11      C       0.319581    -1.803081    -0.012364
   12      C      -2.094095     0.598081     0.361011
   13      O      -1.122617     0.772811    -0.586569
   14      H      -1.347175    -2.758534    -0.103057
   15      H       2.819770    -1.308829     0.325878
   16      H       0.341919     2.834774    -0.524477
   17      H       4.031623     0.835839     0.277900
   18      H       2.783473     2.925588    -0.151656
   19      H      -3.465699    -0.302932    -0.958274
   20      H      -4.190586     0.416762     0.489045
   21      H      -3.622579     1.432826    -0.841924
 ----------------------------------------------------
 Molecular Point Group                 C1    NOp =  1
 Largest Abelian Subgroup              C1    NOp =  1
 Nuclear Repulsion Energy =   786.6564045696 hartrees
 There are       47 alpha and       47 beta electrons
 Applying Cartesian multipole field
    Component          Value
    ---------          -----
     (2,0,0)        1.00000E-11
     (0,2,0)        2.00000E-11
     (0,0,2)       -3.00000E-11
 Nucleus-field energy     =     0.0000000245 hartrees
 Requested basis set is 6-31G
[...]
     11  C         0.312741   -1.795758   -0.003697
     12  C        -2.093390    0.597226    0.368946
     13  O        -1.123746    0.784940   -0.580465
     14  H        -1.352675   -2.750955   -0.158223
     15  H         2.816162   -1.305890    0.345868
     16  H         0.351638    2.838644   -0.541514
     17  H         4.034545    0.834547    0.283311
     18  H         2.794241    2.924517   -0.167576
     19  H        -3.468584   -0.319440   -0.936128
     20  H        -4.193217    0.417899    0.501494
     21  H        -3.624307    1.418794   -0.841537
   Point Group: c1    Number of degrees of freedom:    57


   Energy is   -644.675704686

 GETINT wrote B to file, NVib is           57
 Hessian Updated using BFGS Update

 57 Hessian modes will be used to form the next step
  Hessian Eigenvalues:
     0.001324    0.010276    0.015474    0.018323    0.020345    0.021382
     0.022152    0.022466    0.022761    0.022940    0.023002    0.023211
     0.023291    0.051542    0.053267    0.073091    0.076838    0.078107
     0.157914    0.159977    0.159998    0.160028    0.160035    0.162779
     0.168689    0.175814    0.220037    0.225624    0.236765    0.245298
     0.248118    0.250316    0.250667    0.276541    0.285403    0.329103
     0.341113    0.344691    0.345498    0.347745    0.349441    0.351284
     0.351955    0.359976    0.394708    0.416029    0.442587    0.457418
     0.463905    0.465593    0.486387    0.498068    0.565164    0.571017
     0.644228    0.950365    0.965221

 Minimum Search - Taking Simple RFO Step
 Searching for Lamda that Minimizes Along All modes
 Value Taken    Lamda =  -0.00000291
 Step Taken.  Stepsize is  0.041318

                             Maximum     Tolerance    Cnvgd?
         Gradient           0.000226      0.000300     YES
         Displacement       0.016324      0.001200      NO
         Energy change     -0.000003      0.000001      NO


 New Cartesian Coordinates Obtained by Inverse Iteration

 Displacement from previous Coordinates is:  0.060478
 ----------------------------------------------------
       Standard Nuclear Orientation (Angstroms)
    I     Atom         X            Y            Z
 ----------------------------------------------------
    1      C       2.295253    -0.388847     0.156227
    2      C       0.910871     1.948458    -0.343440
    3      C       2.976030     0.812437     0.117010
    4      C       2.278963     1.985418    -0.136859
    5      C      -3.438920     0.525870    -0.259953
    6      C       0.916478    -0.449082    -0.054568
    7      C       0.236238     0.742463    -0.298884
    8      O       0.942031    -2.808186     0.229716
    9      O      -1.838726     0.514917     1.545639
   10      O      -1.015986    -1.859581    -0.234914
   11      C       0.311628    -1.794203     0.000100
   12      C      -2.093176     0.591736     0.370196
   13      O      -1.124169     0.788677    -0.577685
   14      H      -1.351252    -2.751066    -0.168766
   15      H       2.814741    -1.305009     0.348381
   16      H       0.352443     2.839732    -0.543045
   17      H       4.034732     0.834328     0.281124
   18      H       2.795506     2.924511    -0.172108
   19      H      -3.472256    -0.319070    -0.934103
   20      H      -4.193609     0.422638     0.502663
   21      H      -3.620002     1.419875    -0.841469
 ----------------------------------------------------
 Molecular Point Group                 C1    NOp =  1
 Largest Abelian Subgroup              C1    NOp =  1
 Nuclear Repulsion Energy =   786.6233065948 hartrees
 There are       47 alpha and       47 beta electrons
 Applying Cartesian multipole field
    Component          Value
    ---------          -----
     (2,0,0)        1.00000E-11
     (0,2,0)        2.00000E-11
     (0,0,2)       -3.00000E-11
 Nucleus-field energy     =     0.0000000243 hartrees
 Requested basis set is 6-31G
 There are 55 shells and 133 basis functions
 A cutoff of  1.0D-11 yielded   1249 shell pairs
 There are      8218 function pairs
 Smallest overlap matrix eigenvalue = 4.98E-04
 Guess MOs from SCF MO coefficient file
Reading MOs from coefficient file
Reading MOs from coefficient file
 A restricted Hartree-Fock SCF calculation will be
 performed using Pulay DIIS extrapolation
 SCF converges when DIIS error is below 1.0E-08
Geometry optimization detected.  Setting ReadMinima to 0
Setting SaveMinima to 0
 ---------------------------------------
  Cycle       Energy         DIIS Error
 ---------------------------------------
    1    -644.6760220268      5.31E-04
    2    -644.6756786216      6.92E-05
    3    -644.6757024321      2.26E-05
    4    -644.6757058814      6.16E-06
    5    -644.6757060700      3.70E-06
    6    -644.6757061524      9.47E-07
    7    -644.6757061598      4.33E-07
    8    -644.6757061610      1.68E-07
    9    -644.6757061612      6.78E-08
   10    -644.6757061615      2.84E-08
   11    -644.6757061615      1.26E-08
   12    -644.6757061615      9.47E-09 Convergence criterion met
 ---------------------------------------
 SCF time:  CPU 6.32 s  wall 6.34 s
 SCF   energy in the final basis set = -644.6757061615
 Total energy in the final basis set = -644.6757061615
 Analysis of SCF Wavefunction
 
 --------------------------------------------------------------
                    Orbital Energies (a.u.)
 --------------------------------------------------------------
 
 Alpha MOs
 -- Occupied --
-20.624 -20.620 -20.570 -20.569 -11.424 -11.415 -11.342 -11.278
-11.269 -11.266 -11.257 -11.254 -11.245  -1.498  -1.488  -1.392
 -1.383  -1.192  -1.073  -1.065  -1.022  -0.926  -0.877  -0.837
 -0.804  -0.734  -0.719  -0.700  -0.694  -0.675  -0.668  -0.648
 -0.636  -0.626  -0.591  -0.585  -0.577  -0.562  -0.539  -0.522
 -0.520  -0.487  -0.472  -0.464  -0.454  -0.366  -0.354
 -- Virtual --
  0.074   0.128   0.170   0.212   0.220   0.233   0.257   0.285
  0.295   0.314   0.320   0.331   0.351   0.372   0.406   0.421
  0.429   0.458   0.485   0.499   0.499   0.539   0.576   0.601
  0.705   0.716   0.738   0.746   0.748   0.758   0.787   0.799
  0.813   0.815   0.841   0.847   0.856   0.861   0.868   0.874
  0.893   0.925   0.948   0.953   0.961   0.994   1.027   1.045
  1.094   1.115   1.129   1.138   1.144   1.157   1.178   1.209
  1.213   1.226   1.230   1.240   1.265   1.268   1.279   1.290
  1.313   1.342   1.344   1.361   1.384   1.434   1.439   1.482
  1.492   1.544   1.565   1.592   1.705   1.718   1.761   1.835
  1.893   2.072   2.120   2.225   2.382   2.414
 --------------------------------------------------------------
 
          Ground-State Mulliken Net Atomic Charges

     Atom                 Charge (a.u.)
  ----------------------------------------
      1 C                    -0.160512
      2 C                    -0.210788
      3 C                    -0.209272
      4 C                    -0.165375
      5 C                    -0.518854
      6 C                    -0.131222
      7 C                     0.432765
      8 O                    -0.555592
      9 O                    -0.541489
     10 O                    -0.752810
     11 C                     0.807185
     12 C                     0.781325
     13 O                    -0.787885
     14 H                     0.447830
     15 H                     0.271727
     16 H                     0.231562
     17 H                     0.218588
     18 H                     0.221352
     19 H                     0.215099
     20 H                     0.203139
     21 H                     0.203230
  ----------------------------------------
  Sum of atomic charges =    -0.000000

 -----------------------------------------------------------------
                    Cartesian Multipole Moments
 -----------------------------------------------------------------
    Charge (ESU x 10^10)
                -0.0000
    Dipole Moment (Debye)
         X      -0.5965      Y       2.0070      Z      -2.2758
       Tot       3.0924
    Quadrupole Moments (Debye-Ang)
        XX     -59.6297     XY       9.4976     YY     -72.1095
        XZ       4.5270     YZ      -0.1501     ZZ     -83.9781
    Octapole Moments (Debye-Ang^2)
       XXX     -21.7473    XXY       5.2930    XYY     -27.2692
       YYY      17.1434    XXZ      -7.6902    XYZ       2.3333
       YYZ     -10.6694    XZZ       1.1222    YZZ     -12.4033
       ZZZ     -15.5531
    Hexadecapole Moments (Debye-Ang^3)
      XXXX   -1508.2750   XXXY     -11.8944   XXYY    -414.0099
      XYYY      92.4857   YYYY    -983.3870   XXXZ      51.0512
      XXYZ       1.9845   XYYZ       2.5776   YYYZ      28.6897
      XXZZ    -356.4042   XYZZ      -9.7646   YYZZ    -203.3552
      XZZZ      35.4671   YZZZ      15.8321   ZZZZ    -212.5555
 -----------------------------------------------------------------
 Calculating analytic gradient of the SCF energy
 Gradient of Coulomb and Exchange Energy
            1           2           3           4           5           6
    1  -9.8723516  -0.6993522 -12.0152797  -7.5386985   8.6350854  -0.8164442
    2   4.3596775 -12.5602901  -2.1218528  -9.6647116  -1.4092045   6.1566307
    3  -1.6161448   2.5539091  -1.3524693   0.3819926   0.6654039   0.1546028
            7           8           9          10          11          12
    1   1.4119084 -11.5867451   2.1917538  10.8859347   3.1713862   9.2653381
    2  -2.2068757  24.2044212  -1.6086680   4.4626143  -1.2432026  -1.8064081
    3   1.6182274  -4.1566631 -26.2482184   4.0274054   1.5597012   8.6121311
           13          14          15          16          17          18
    1   6.8620471   2.7252223  -3.6349768   2.7547867  -5.6746148  -2.8863985
    2  -7.2787674   6.2167468   5.0890116  -5.4665078  -0.2419117  -4.9616501
    3  11.6572790  -0.2834254  -1.1370535   1.3191152  -0.8480655   0.1980908
           19          20          21
    1   1.2307586   3.8777575   1.7128829
    2   3.5308940   0.3094299  -3.7593756
    3   3.1618646  -2.8364818   2.5687987
 Gradient of SCF Energy
            1           2           3           4           5           6
    1   0.0000258   0.0000145   0.0000096  -0.0000067   0.0000089  -0.0000170
    2   0.0000197   0.0000121  -0.0000002   0.0000075  -0.0000142   0.0000152
    3   0.0000172  -0.0000070  -0.0000118   0.0000129  -0.0000042   0.0000040
            7           8           9          10          11          12
    1  -0.0000060  -0.0000578  -0.0000070   0.0000275   0.0000270  -0.0000155
    2  -0.0000405  -0.0000216  -0.0000010  -0.0000404   0.0000240   0.0000089
    3  -0.0000145  -0.0000070  -0.0000087   0.0000083  -0.0000067   0.0000470
           13          14          15          16          17          18
    1   0.0000205  -0.0000209  -0.0000053  -0.0000015   0.0000025   0.0000033
    2   0.0000254  -0.0000117   0.0000071   0.0000007   0.0000050   0.0000015
    3  -0.0000237  -0.0000021  -0.0000030  -0.0000013   0.0000019  -0.0000035
           19          20          21
    1  -0.0000003  -0.0000043   0.0000029
    2   0.0000014  -0.0000013   0.0000024
    3  -0.0000026   0.0000012   0.0000036
 Max gradient component =       5.784E-05
 RMS gradient           =       1.677E-05
 Gradient time:  CPU 3.82 s  wall 3.83 s
 Geometry Optimization Parameters
   NAtoms,    NIC,     NZ,  NCons,   NDum,   NFix, NCnnct, MaxDiis
       21     135       0       0       0       0       0       0

 Cartesian Hessian Update
 Hessian Updated using BFGS Update


** GEOMETRY OPTIMIZATION IN DELOCALIZED INTERNAL COORDINATES **
   Searching for a Minimum

   Optimization Cycle:  14

                       Coordinates (Angstroms)
     ATOM              X           Y           Z
      1  C         2.295253   -0.388847    0.156227
      2  C         0.910871    1.948458   -0.343440
      3  C         2.976030    0.812437    0.117010
      4  C         2.278963    1.985418   -0.136859
      5  C        -3.438920    0.525870   -0.259953
      6  C         0.916478   -0.449082   -0.054568
      7  C         0.236238    0.742463   -0.298884
      8  O         0.942031   -2.808186    0.229716
      9  O        -1.838726    0.514917    1.545639
     10  O        -1.015986   -1.859581   -0.234914
     11  C         0.311628   -1.794203    0.000100
     12  C        -2.093176    0.591736    0.370196
     13  O        -1.124169    0.788677   -0.577685
     14  H        -1.351252   -2.751066   -0.168766
     15  H         2.814741   -1.305009    0.348381
     16  H         0.352443    2.839732   -0.543045
     17  H         4.034732    0.834328    0.281124
     18  H         2.795506    2.924511   -0.172108
     19  H        -3.472256   -0.319070   -0.934103
     20  H        -4.193609    0.422638    0.502663
     21  H        -3.620002    1.419875   -0.841469
   Point Group: c1    Number of degrees of freedom:    57


   Energy is   -644.675706161

 GETINT wrote B to file, NVib is           57
 Hessian Updated using BFGS Update

 57 Hessian modes will be used to form the next step
  Hessian Eigenvalues:
     0.001362    0.010295    0.015543    0.018319    0.020334    0.021384
     0.022152    0.022478    0.022765    0.022940    0.023002    0.023207
     0.023288    0.050947    0.053225    0.073093    0.076752    0.078094
     0.157962    0.159978    0.159997    0.160028    0.160060    0.163048
     0.168794    0.175243    0.220037    0.225598    0.236794    0.245517
     0.248132    0.250424    0.252443    0.274774    0.284211    0.329385
     0.341431    0.344689    0.345485    0.347515    0.349552    0.351279
     0.351954    0.358288    0.395067    0.416032    0.443131    0.457453
     0.463905    0.465533    0.485470    0.497171    0.552301    0.571159
     0.644423    0.950936    0.964986

 Minimum Search - Taking Simple RFO Step
 Searching for Lamda that Minimizes Along All modes
 Value Taken    Lamda =   0.00000000
 Step Taken.  Stepsize is  0.001250

                             Maximum     Tolerance    Cnvgd?
         Gradient           0.000079      0.000300     YES
         Displacement       0.000542      0.001200     YES
         Energy change     -0.000001      0.000001      NO

 Final energy is   -644.675706161474     


 ******************************
 **  OPTIMIZATION CONVERGED  **
 ******************************

Z-matrix Print:
$molecule
0 1
O 
C  1 1.369758
O  2 1.205120 1 122.327817
C  1 1.389451 2 123.298784 3 -8.696426 0
C  4 1.382584 1 116.248958 2 109.488969 0
H  5 1.070539 4 118.534515 1 -2.637551 0
C  5 1.384094 4 120.052398 1 177.150270 0
H  7 1.072360 5 119.643240 4 179.951669 0
C  7 1.387889 5 120.077789 4 0.079098 0
H  9 1.071570 7 120.462000 5 179.792285 0
C  9 1.381331 7 119.515445 5 -0.256546 0
H  11 1.070581 9 120.675027 7 -179.866904 0
C  4 1.393628 1 122.787100 2 -73.782748 0
C  13 1.475867 4 125.852889 1 2.620388 0
O  14 1.215850 13 123.682771 4 179.255053 0
O  14 1.349839 13 116.153249 4 -1.324428 0
H  16 0.954738 14 112.243305 13 178.866127 0
C  2 1.487432 1 110.685681 3 -178.696730 0
H  18 1.077866 2 109.753382 1 177.050293 0
H  18 1.081440 2 109.061411 1 -62.184791 0
H  18 1.081756 2 110.034971 1 55.847673 0
$end

 Analysis of SCF Wavefunction
 
 --------------------------------------------------------------
                    Orbital Energies (a.u.)
 --------------------------------------------------------------
 
 Alpha MOs
 -- Occupied --
-20.624 -20.620 -20.570 -20.569 -11.424 -11.415 -11.342 -11.278
-11.269 -11.266 -11.257 -11.254 -11.245  -1.498  -1.488  -1.392
 -1.383  -1.192  -1.073  -1.065  -1.022  -0.926  -0.877  -0.837
 -0.804  -0.734  -0.719  -0.700  -0.694  -0.675  -0.668  -0.648
 -0.636  -0.626  -0.591  -0.585  -0.577  -0.562  -0.539  -0.522
 -0.520  -0.487  -0.472  -0.464  -0.454  -0.366  -0.354
 -- Virtual --
  0.074   0.128   0.170   0.212   0.220   0.233   0.257   0.285
  0.295   0.314   0.320   0.331   0.351   0.372   0.406   0.421
  0.429   0.458   0.485   0.499   0.499   0.539   0.576   0.601
  0.705   0.716   0.738   0.746   0.748   0.758   0.787   0.799
  0.813   0.815   0.841   0.847   0.856   0.861   0.868   0.874
  0.893   0.925   0.948   0.953   0.961   0.994   1.027   1.045
  1.094   1.115   1.129   1.138   1.144   1.157   1.178   1.209
  1.213   1.226   1.230   1.240   1.265   1.268   1.279   1.290
  1.313   1.342   1.344   1.361   1.384   1.434   1.439   1.482
  1.492   1.544   1.565   1.592   1.705   1.718   1.761   1.835
  1.893   2.072   2.120   2.225   2.382   2.414
 --------------------------------------------------------------
 
          Ground-State Mulliken Net Atomic Charges

     Atom                 Charge (a.u.)
  ----------------------------------------
      1 C                    -0.160512
      2 C                    -0.210788
      3 C                    -0.209272
      4 C                    -0.165375
      5 C                    -0.518854
      6 C                    -0.131222
      7 C                     0.432765
      8 O                    -0.555592
      9 O                    -0.541489
     10 O                    -0.752810
     11 C                     0.807185
     12 C                     0.781325
     13 O                    -0.787885
     14 H                     0.447830
     15 H                     0.271727
     16 H                     0.231562
     17 H                     0.218588
     18 H                     0.221352
     19 H                     0.215099
     20 H                     0.203139
     21 H                     0.203230
  ----------------------------------------
  Sum of atomic charges =    -0.000000

 -----------------------------------------------------------------
                    Cartesian Multipole Moments
 -----------------------------------------------------------------
    Charge (ESU x 10^10)
                -0.0000
    Dipole Moment (Debye)
         X      -0.5965      Y       2.0070      Z      -2.2758
       Tot       3.0924
    Quadrupole Moments (Debye-Ang)
        XX     -59.6297     XY       9.4976     YY     -72.1095
        XZ       4.5270     YZ      -0.1501     ZZ     -83.9781
    Octapole Moments (Debye-Ang^2)
       XXX     -21.7473    XXY       5.2930    XYY     -27.2692
       YYY      17.1434    XXZ      -7.6902    XYZ       2.3333
       YYZ     -10.6694    XZZ       1.1222    YZZ     -12.4033
       ZZZ     -15.5531
    Hexadecapole Moments (Debye-Ang^3)
      XXXX   -1508.2750   XXXY     -11.8944   XXYY    -414.0099
      XYYY      92.4857   YYYY    -983.3870   XXXZ      51.0512
      XXYZ       1.9845   XYYZ       2.5776   YYYZ      28.6897
      XXZZ    -356.4042   XYZZ      -9.7646   YYZZ    -203.3552
      XZZZ      35.4671   YZZZ      15.8321   ZZZZ    -212.5555
 -----------------------------------------------------------------
Archival summary:
1\1\gold\OPT\HF\6-31G\498\eric\SunDec2216:22:452013SunDec2216:22:452013\0\\#,OPT,HF,6-31G,\\0,1\O\C,1,1.36976\O,2,1.20512,1,122.328\C,1,1.38945,2,123.299,3,-8.69643,0\C,4,1.38258,1,116.249,2,109.489,0\H,5,1.07054,4,118.535,1,-2.63755,0\C,5,1.38409,4,120.052,1,177.15,0\H,7,1.07236,5,119.643,4,179.952,0\C,7,1.38789,5,120.078,4,0.0790977,0\H,9,1.07157,7,120.462,5,179.792,0\C,9,1.38133,7,119.515,5,-0.256546,0\H,11,1.07058,9,120.675,7,-179.867,0\C,4,1.39363,1,122.787,2,-73.7827,0\C,13,1.47587,4,125.853,1,2.62039,0\O,14,1.21585,13,123.683,4,179.255,0\O,14,1.34984,13,116.153,4,-1.32443,0\H,16,0.954738,14,112.243,13,178.866,0\C,2,1.48743,1,110.686,3,-178.697,0\H,18,1.07787,2,109.753,1,177.05,0\H,18,1.08144,2,109.061,1,-62.1848,0\H,18,1.08176,2,110.035,1,55.8477,0\\HF=-644.675706\\@

 Total job time:  158.61s(wall), 156.28s(cpu) 
 Sun Dec 22 16:22:45 2013

        *************************************************************
        *                                                           *
        *  Thank you very much for using Q-Chem.  Have a nice day.  *
        *                                                           *
        *************************************************************


