
                                 *****************
                                 * O   R   C   A *
                                 *****************

           --- An Ab Initio, DFT and Semiempirical electronic structure package ---

                  #######################################################
                  #                        -***-                        #
                  #  Department of molecular theory and spectroscopy    #
                  #              Directorship: Frank Neese              #
                  # Max Planck Institute for Chemical Energy Conversion #
                  #                  D-45470 Muelheim/Ruhr              #
                  #                       Germany                       #
                  #                                                     #
                  #                  All rights reserved                #
                  #                        -***-                        #
                  #######################################################


                         Program Version 3.0.1 -  RELEASE  -


 With contributions from (in alphabetic order):
   Ute Becker             : Parallelization
   Dmytro Bykov           : SCF Hessian
   Dmitry Ganyushin       : Spin-Orbit,Spin-Spin,Magnetic field MRCI
   Andreas Hansen         : Spin unrestricted coupled pair/coupled cluster methods
   Dimitrios Liakos       : Extrapolation schemes; parallel MDCI
   Robert Izsak           : Overlap fitted RIJCOSX, COSX-SCS-MP3
   Christian Kollmar      : KDIIS, OOCD, Brueckner-CCSD(T), CCSD density
   Simone Kossmann        : Meta GGA functionals, TD-DFT gradient, OOMP2, MP2 Hessian
   Taras Petrenko         : DFT Hessian,TD-DFT gradient, ASA and ECA modules, normal mode analysis, Resonance Raman, ABS, FL, XAS/XES, NRVS
   Christoph Reimann      : Effective Core Potentials
   Michael Roemelt        : Restricted open shell CIS
   Christoph Riplinger    : Improved optimizer, TS searches, QM/MM, DLPNO-CCSD
   Barbara Sandhoefer     : DKH picture change effects
   Igor Schapiro          : Molecular dynamics
   Kantharuban Sivalingam : CASSCF convergence, NEVPT2
   Boris Wezisla          : Elementary symmetry handling
   Frank Wennmohs         : Technical directorship


 We gratefully acknowledge several colleagues who have allowed us to
 interface, adapt or use parts of their codes:
   Stefan Grimme, W. Hujo, H. Kruse, T. Risthaus : VdW corrections, initial TS optimization,
                                                   DFT functionals, gCP
   Ed Valeev                                     : LibInt (2-el integral package), F12 methods
   Garnet Chan, S. Sharma, R. Olivares           : DMRG
   Ulf Ekstrom                                   : XCFun DFT Library
   Mihaly Kallay                                 : mrcc  (arbitrary order and MRCC methods)
   Andreas Klamt, Michael Diedenhofen            : otool_cosmo (COSMO solvation model)
   Frank Weinhold                                : gennbo (NPA and NBO analysis)


 Your calculation uses the libint2 library for the computation of 2-el integrals
 For citations please refer to: http://libint.valeyev.net

 This ORCA versions uses:
   CBLAS   interface :  Fast vector & matrix operations
   LAPACKE interface :  Fast linear algebra routines
   SCALAPACK package :  Parallel linear algebra routines


Your calculation utilizes the basis: 6-31G
Cite in your paper:
H - He: W.J. Hehre, R. Ditchfield and J.A. Pople, J. Chem. Phys. 56,
Li - Ne: 2257 (1972).  Note: Li and B come from J.D. Dill and J.A.
         Pople, J. Chem. Phys. 62, 2921 (1975).
Na - Ar: M.M. Francl, W.J. Pietro, W.J. Hehre, J.S. Binkley, M.S. Gordon,
         D.J. DeFrees and J.A. Pople, J. Chem. Phys. 77, 3654 (1982)
K  - Zn: V. Rassolov, J.A. Pople, M. Ratner and T.L. Windus, J. Chem. Phys.
         (accepted, 1998)
Note: He and Ne are unpublished basis sets taken from the Gaussian program



*****************************************
The coordinations will be read from file: atoms.xyz
*****************************************


================================================================================
                                        WARNINGS
                       Please study these warnings very carefully!
================================================================================
Now building the actual basis set

WARNING: Geometry Optimization
  ===> : Switching off AutoStart
         For restart on a previous wavefunction, please use MOREAD


INFO   : the flag for use of LIBINT has been found!

================================================================================
                                       INPUT FILE
================================================================================
NAME = b3lyp.inp
|  1> ! rks b3lyp 6-31g opt
|  2> 
|  3> * xyzfile 0 1 atoms.xyz **                         ****END OF INPUT****
================================================================================

                       *****************************
                       * Geometry Optimization Run *
                       *****************************

Geometry optimization settings:
Update method            Update   .... BFGS
Choice of coordinates    CoordSys .... Redundant Internals
Initial Hessian          InHess   .... Almoef's Model

Convergence Tolerances:
Energy Change            TolE     ....  5.0000e-06 Eh
Max. Gradient            TolMAXG  ....  3.0000e-04 Eh/bohr
RMS Gradient             TolRMSG  ....  1.0000e-04 Eh/bohr
Max. Displacement        TolMAXD  ....  4.0000e-03 bohr
RMS Displacement         TolRMSD  ....  2.0000e-03 bohr

------------------------------------------------------------------------------
                        ORCA OPTIMIZATION COORDINATE SETUP
------------------------------------------------------------------------------

The optimization will be done in new redundant internal coordinates
Making redundant internal coordinates   ...  (new redundants) done
Evaluating the initial hessian          ...  (Almloef) done
Evaluating the coordinates              ...  done
Calculating the B-matrix                .... done
Calculating the G-matrix                .... done
Diagonalizing the G-matrix              .... done
Small eigenvalue found = 1.141e-02
Small eigenvalue found = 1.718e-02
The first mode is                       ....   36
The number of degrees of freedom        ....   57

    -----------------------------------------------------------------
                    Redundant Internal Coordinates


    -----------------------------------------------------------------
         Definition                    Initial Value    Approx d2E/dq
    -----------------------------------------------------------------
      1. B(C   2,C   0)                  1.3983         0.606025   
      2. B(C   3,C   2)                  1.3933         0.617358   
      3. B(C   3,C   1)                  1.3936         0.616603   
      4. B(C   5,C   0)                  1.4051         0.591045   
      5. B(C   6,C   5)                  1.4013         0.599360   
      6. B(C   6,C   1)                  1.4006         0.601017   
      7. B(C  10,C   5)                  1.4850         0.440740   
      8. B(C  10,O   9)                  1.3438         0.663063   
      9. B(C  10,O   7)                  1.2189         1.049304   
     10. B(C  11,O   8)                  1.2241         1.029502   
     11. B(C  11,C   4)                  1.4993         0.418150   
     12. B(O  12,C  11)                  1.3900         0.559592   
     13. B(O  12,C   6)                  1.3969         0.545512   
     14. B(H  13,O   9)                  0.9806         0.482016   
     15. B(H  14,C   0)                  1.0893         0.361000   
     16. B(H  15,C   1)                  1.0865         0.364742   
     17. B(H  16,C   2)                  1.0875         0.363477   
     18. B(H  17,C   3)                  1.0871         0.363915   
     19. B(H  18,C   4)                  1.0929         0.356274   
     20. B(H  19,C   4)                  1.0945         0.354162   
     21. B(H  20,C   4)                  1.0924         0.356901   
     22. A(C   5,C   0,H  14)          120.1951         0.350215   
     23. A(C   2,C   0,C   5)          120.8334         0.428594   
     24. A(C   2,C   0,H  14)          118.9714         0.351699   
     25. A(C   3,C   1,C   6)          119.9059         0.431220   
     26. A(C   6,C   1,H  15)          120.2616         0.351819   
     27. A(C   3,C   1,H  15)          119.8309         0.353346   
     28. A(C   3,C   2,H  16)          120.0625         0.353212   
     29. A(C   0,C   2,H  16)          119.8610         0.352106   
     30. A(C   0,C   2,C   3)          120.0764         0.431958   
     31. A(C   1,C   3,H  17)          120.0596         0.353210   
     32. A(C   1,C   3,C   2)          119.8955         0.433304   
     33. A(C   2,C   3,H  17)          120.0447         0.353284   
     34. A(H  18,C   4,H  20)          110.6839         0.289946   
     35. A(C  11,C   4,H  20)          109.8520         0.329913   
     36. A(H  18,C   4,H  19)          108.4653         0.289596   
     37. A(C  11,C   4,H  19)          109.2973         0.329493   
     38. A(H  19,C   4,H  20)          108.6176         0.289676   
     39. A(C  11,C   4,H  18)          109.8880         0.329817   
     40. A(C   0,C   5,C  10)          116.5242         0.404977   
     41. A(C   0,C   5,C   6)          118.2971         0.427745   
     42. A(C   6,C   5,C  10)          125.1773         0.405978   
     43. A(C   5,C   6,O  12)          122.6968         0.418917   
     44. A(C   1,C   6,O  12)          116.2790         0.419123   
     45. A(C   1,C   6,C   5)          120.9736         0.429030   
     46. A(C  10,O   9,H  13)          103.1438         0.369568   
     47. A(O   7,C  10,O   9)          119.9950         0.477192   
     48. A(C   5,C  10,O   9)          114.9806         0.410639   
     49. A(C   5,C  10,O   7)          125.0199         0.445853   
     50. A(C   4,C  11,O  12)          108.7588         0.394858   
     51. A(C   4,C  11,O   8)          124.3447         0.440111   
     52. A(O   8,C  11,O  12)          126.8950         0.460960   
     53. A(C   6,O  12,C  11)          112.5226         0.411157   
     54. D(C   3,C   2,C   0,H  14)    179.6708         0.025346   
     55. D(H  16,C   2,C   0,C   5)    179.8946         0.025346   
     56. D(H  16,C   2,C   0,H  14)     -0.2494         0.025346   
     57. D(C   3,C   2,C   0,C   5)     -0.1851         0.025346   
     58. D(H  17,C   3,C   1,C   6)   -179.3606         0.026291   
     59. D(C   1,C   3,C   2,H  16)   -179.7545         0.026360   
     60. D(C   2,C   3,C   1,C   6)      0.4889         0.026291   
     61. D(H  17,C   3,C   2,H  16)      0.0951         0.026360   
     62. D(H  17,C   3,C   2,C   0)   -179.8251         0.026360   
     63. D(C   2,C   3,C   1,H  15)   -179.9829         0.026291   
     64. D(H  17,C   3,C   1,H  15)      0.1676         0.026291   
     65. D(C   1,C   3,C   2,C   0)      0.3254         0.026360   
     66. D(C   6,C   5,C   0,H  14)    179.3884         0.024045   
     67. D(C  10,C   5,C   0,C   2)    178.8366         0.024045   
     68. D(C   6,C   5,C   0,C   2)     -0.7574         0.024045   
     69. D(C  10,C   5,C   0,H  14)     -1.0177         0.024045   
     70. D(O  12,C   6,C   5,C  10)     -0.6580         0.024762   
     71. D(C   1,C   6,C   5,C  10)   -177.9733         0.024762   
     72. D(C   1,C   6,C   5,C   0)      1.5823         0.024762   
     73. D(O  12,C   6,C   1,H  15)      1.5268         0.024906   
     74. D(O  12,C   6,C   1,C   3)   -178.9471         0.024906   
     75. D(O  12,C   6,C   5,C   0)    178.8976         0.024762   
     76. D(C   5,C   6,C   1,H  15)    179.0072         0.024906   
     77. D(C   5,C   6,C   1,C   3)     -1.4666         0.024906   
     78. D(O   7,C  10,O   9,H  13)      0.5890         0.032601   
     79. D(C   5,C  10,O   9,H  13)    179.8629         0.032601   
     80. D(O   9,C  10,C   5,C   6)      3.2840         0.013253   
     81. D(O   9,C  10,C   5,C   0)   -176.2786         0.013253   
     82. D(O   7,C  10,C   5,C   6)   -177.4838         0.013253   
     83. D(O   7,C  10,C   5,C   0)      2.9536         0.013253   
     84. D(O   8,C  11,C   4,H  18)   -120.5464         0.012933   
     85. D(O  12,C  11,C   4,H  20)    -62.1225         0.012933   
     86. D(O  12,C  11,C   4,H  19)    178.7967         0.012933   
     87. D(O  12,C  11,C   4,H  18)     59.8802         0.012933   
     88. D(O   8,C  11,C   4,H  20)    117.4510         0.012933   
     89. D(O   8,C  11,C   4,H  19)     -1.6299         0.012933   
     90. D(C   6,O  12,C  11,O   8)      2.8520         0.022686   
     91. D(C   6,O  12,C  11,C   4)   -177.5884         0.022686   
     92. D(C  11,O  12,C   6,C   5)     86.3237         0.021507   
     93. D(C  11,O  12,C   6,C   1)    -96.2434         0.021507   
    -----------------------------------------------------------------

Number of atoms                         .... 21
Number of degrees of freedom            .... 93

         *************************************************************
         *                GEOMETRY OPTIMIZATION CYCLE   1            *
         *************************************************************
---------------------------------
CARTESIAN COORDINATES (ANGSTROEM)
---------------------------------
  C      2.056390   -0.165430    0.397270
  C      0.688900    2.028540   -0.648160
  C      2.740710    1.023270    0.125330
  C      2.057340    2.117820   -0.400160
  C     -3.593960    1.032090    0.045890
  C      0.677380   -0.275070    0.150970
  C      0.002740    0.842340   -0.358870
  O      0.632930   -2.545260    0.933600
  O     -1.764520    1.432520    1.565710
  O     -1.248940   -1.684110    0.129750
  C      0.052780   -1.588810    0.449580
  C     -2.151990    1.128410    0.445130
  O     -1.361670    0.828320   -0.658250
  H     -1.476520   -2.601110    0.392320
  H      2.609480   -1.011730    0.802840
  H      0.157080    2.882660   -1.058230
  H      3.807770    1.091260    0.323640
  H      2.590440    3.040810   -0.614050
  H     -3.816400    0.020490   -0.302870
  H     -4.224800    1.245910    0.914400
  H     -3.812960    1.765760   -0.733320

----------------------------
CARTESIAN COORDINATES (A.U.)
----------------------------
  NO LB      ZA    FRAG    MASS        X           Y           Z
   0 C     6.0000    0    12.011          3.886013924534323         -0.312617394334593          0.750731501222896
   1 C     6.0000    0    12.011          1.301832333658350          3.833385051704616         -1.224844890962398
   2 C     6.0000    0    12.011          5.179191312499314          1.933700061057599          0.236839376364350
   3 C     6.0000    0    12.011          3.887809164361548          4.002099800941105         -0.756192809749928
   4 C     6.0000    0    12.011         -6.791600136267622          1.950367445558784          0.086719532285646
   5 C     6.0000    0    12.011          1.280062688595577         -0.519806967657719          0.285291954438091
   6 C     6.0000    0    12.011          0.005177849606944          1.591791911647227         -0.678166017680320
   7 O     8.0000    0    15.999          1.196064361942778         -4.809844339624405          1.764248318628880
   8 O     8.0000    0    15.999         -3.334459557826727          2.707070481364871          2.958763105141843
   9 O     8.0000    0    15.999         -2.360154557699608         -3.182506679398119          0.245191965876282
  10 C     6.0000    0    12.011          0.099739745348364         -3.002415778835424          0.849583075288316
  11 C     6.0000    0    12.011         -4.066671742937195          2.132385866778079          0.841173793992367
  12 O     8.0000    0    15.999         -2.573183384776551          1.565297951249651         -1.243912227653664
  13 H     1.0000    0     1.008         -2.790218431257407         -4.915385544203906          0.741377356859985
  14 H     1.0000    0     1.008          4.931202551944827         -1.911892621472148          1.517147729357338
  15 H     1.0000    0     1.008          0.296838181116350          5.447437937209435         -1.999764886699486
  16 H     1.0000    0     1.008          7.195642480961324          2.062182540902905          0.611590965982274
  17 H     1.0000    0     1.008          4.895222166354968          5.746298125289082         -1.160386332534345
  18 H     1.0000    0     1.008         -7.211950817497065          0.038720488484046         -0.572341354180729
  19 H     1.0000    0     1.008         -7.983714970590504          2.354428687513827          1.727965576857593
  20 H     1.0000    0     1.008         -7.205450159596375          3.336802818232789         -1.385773968527132

--------------------------------
INTERNAL COORDINATES (ANGSTROEM)
--------------------------------
 C      0   0   0   0.000000     0.000     0.000
 C      1   0   0   2.788630     0.000     0.000
 C      1   2   0   1.398304    59.885     0.000
 C      3   1   2   1.393260   120.076   359.837
 C      2   1   3   4.451686   103.723   195.319
 C      1   2   3   1.405117    60.949   179.978
 C      2   1   3   1.400562    59.766   180.816
 O      6   1   2   2.401718    91.994   180.042
 O      5   2   1   2.411856    48.035    63.797
 O      8   6   1   2.220178    62.035   183.121
 C      8   6   1   1.218871    30.422   182.644
 C      9   5   2   1.224057    30.882   339.065
 O     12   9   5   1.390003   126.895   179.495
 H     10   8   6   0.980625    74.755   180.134
 H      1   2   3   1.089321   178.847   352.755
 H      2   1   3   1.086513   179.842    80.621
 H      3   1   2   1.087459   119.861   179.917
 H      4   3   1   1.087132   120.045   180.175
 H      5   2   1   1.092908   110.686   310.695
 H      5   2   1   1.094526   129.382    89.110
 H      5   2   1   1.092429    86.063   200.057

---------------------------
INTERNAL COORDINATES (A.U.)
---------------------------
 C      0   0   0   0.000000     0.000     0.000
 C      1   0   0   5.269747     0.000     0.000
 C      1   2   0   2.642411    59.885     0.000
 C      3   1   2   2.632880   120.076   359.837
 C      2   1   3   8.412467   103.723   195.319
 C      1   2   3   2.655286    60.949   179.978
 C      2   1   3   2.646679    59.766   180.816
 O      6   1   2   4.538589    91.994   180.042
 O      5   2   1   4.557747    48.035    63.797
 O      8   6   1   4.195528    62.035   183.121
 C      8   6   1   2.303332    30.422   182.644
 C      9   5   2   2.313132    30.882   339.065
 O     12   9   5   2.626724   126.895   179.495
 H     10   8   6   1.853112    74.755   180.134
 H      1   2   3   2.058518   178.847   352.755
 H      2   1   3   2.053212   179.842    80.621
 H      3   1   2   2.054999   119.861   179.917
 H      4   3   1   2.054381   120.045   180.175
 H      5   2   1   2.065297   110.686   310.695
 H      5   2   1   2.068355   129.382    89.110
 H      5   2   1   2.064391    86.063   200.057

---------------------
BASIS SET INFORMATION
---------------------
There are 3 groups of distinct atoms

 Group   1 Type C   : 10s4p contracted to 3s2p pattern {631/31}
 Group   2 Type O   : 10s4p contracted to 3s2p pattern {631/31}
 Group   3 Type H   : 4s contracted to 2s pattern {31}

Atom   0C    basis set group =>   1
Atom   1C    basis set group =>   1
Atom   2C    basis set group =>   1
Atom   3C    basis set group =>   1
Atom   4C    basis set group =>   1
Atom   5C    basis set group =>   1
Atom   6C    basis set group =>   1
Atom   7O    basis set group =>   2
Atom   8O    basis set group =>   2
Atom   9O    basis set group =>   2
Atom  10C    basis set group =>   1
Atom  11C    basis set group =>   1
Atom  12O    basis set group =>   2
Atom  13H    basis set group =>   3
Atom  14H    basis set group =>   3
Atom  15H    basis set group =>   3
Atom  16H    basis set group =>   3
Atom  17H    basis set group =>   3
Atom  18H    basis set group =>   3
Atom  19H    basis set group =>   3
Atom  20H    basis set group =>   3
------------------------------------------------------------------------------
                           ORCA GTO INTEGRAL CALCULATION
------------------------------------------------------------------------------

                         BASIS SET STATISTICS AND STARTUP INFO

 # of primitive gaussian shells          ...  214
 # of primitive gaussian functions       ...  318
 # of contracted shell                   ...   81
 # of contracted basis functions         ...  133
 Highest angular momentum                ...    1
 Maximum contraction depth               ...    6
 Integral package used                   ... LIBINT
 Integral threshhold            Thresh   ...  2.500e-11
 Primitive cut-off              TCut     ...  2.500e-12


                              INTEGRAL EVALUATION

 One electron integrals                  ... done
 Pre-screening matrix                    ... done
 Shell pair data                         ... done (   0.002 sec)

-------------------------------------------------------------------------------
                                 ORCA SCF
-------------------------------------------------------------------------------

------------
SCF SETTINGS
------------
Hamiltonian:
 Density Functional     Method          .... DFT(GTOs)
 Exchange Functional    Exchange        .... B88
   X-Alpha parameter    XAlpha          ....  0.666667
   Becke's b parameter  XBeta           ....  0.004200
 Correlation Functional Correlation     .... LYP
 LDA part of GGA corr.  LDAOpt          .... VWN-5
 Gradients option       PostSCFGGA      .... off
 Hybrid DFT is turned on
   Fraction HF Exchange ScalHFX         ....  0.200000
   Scaling of DF-GGA-X  ScalDFX         ....  0.720000
   Scaling of DF-GGA-C  ScalDFC         ....  0.810000
   Scaling of DF-LDA-C  ScalLDAC        ....  1.000000
   Perturbative correction              ....  0.000000
   NL short-range parameter             ....  4.800000


General Settings:
 Integral files         IntName         .... b3lyp
 Hartree-Fock type      HFTyp           .... RHF
 Total Charge           Charge          ....    0
 Multiplicity           Mult            ....    1
 Number of Electrons    NEL             ....   94
 Basis Dimension        Dim             ....  133
 Nuclear Repulsion      ENuc            ....    782.6611615805 Eh

Convergence Acceleration:
 DIIS                   CNVDIIS         .... on
   Start iteration      DIISMaxIt       ....    12
   Startup error        DIISStart       ....  0.200000
   # of expansion vecs  DIISMaxEq       ....     5
   Bias factor          DIISBfac        ....   1.050
   Max. coefficient     DIISMaxC        ....  10.000
 Newton-Raphson         CNVNR           .... off
 SOSCF                  CNVSOSCF        .... on
   Start iteration      SOSCFMaxIt      ....   150
   Startup grad/error   SOSCFStart      ....  0.003300
 Level Shifting         CNVShift        .... on
   Level shift para.    LevelShift      ....    0.2500
   Turn off err/grad.   ShiftErr        ....    0.0010
 Zerner damping         CNVZerner       .... off
 Static damping         CNVDamp         .... on
   Fraction old density DampFac         ....    0.7000
   Max. Damping (<1)    DampMax         ....    0.9800
   Min. Damping (>=0)   DampMin         ....    0.0000
   Turn off err/grad.   DampErr         ....    0.1000
 Fernandez-Rico         CNVRico         .... off

SCF Procedure:
 Maximum # iterations   MaxIter         ....   125
 SCF integral mode      SCFMode         .... Direct
   Integral package                     .... LIBINT
 Reset frequeny         DirectResetFreq ....    20
 Integral Threshold     Thresh          ....  2.500e-11 Eh
 Primitive CutOff       TCut            ....  2.500e-12 Eh

Convergence Tolerance:
 Convergence Check Mode ConvCheckMode   .... Total+1el-Energy
 Energy Change          TolE            ....  1.000e-08 Eh
 1-El. energy change                    ....  1.000e-05 Eh
 Orbital Gradient       TolG            ....  1.000e-05
 Orbital Rotation angle TolX            ....  1.000e-05
 DIIS Error             TolErr          ....  5.000e-07


Diagonalization of the overlap matrix:
Smallest eigenvalue                        ... 5.374e-04
Time for diagonalization                   ...    0.003 sec
Threshold for overlap eigenvalues          ... 1.000e-08
Number of eigenvalues below threshold      ... 0
Time for construction of square roots      ...    0.001 sec
Total time needed                          ...    0.004 sec

-------------------
DFT GRID GENERATION
-------------------

General Integration Accuracy     IntAcc      ...  4.340
Radial Grid Type                 RadialGrid  ... Gauss-Chebyshev
Angular Grid (max. acc.)         AngularGrid ... Lebedev-110
Angular grid pruning method      GridPruning ... 3 (G Style)
Weight generation scheme         WeightScheme... Becke
Basis function cutoff            BFCut       ...    1.0000e-11
Integration weight cutoff        WCut        ...    1.0000e-14
Grids for H and He will be reduced by one unit

# of grid points (after initial pruning)     ...  28120 (   0.0 sec)
# of grid points (after weights+screening)   ...  25848 (   0.1 sec)
nearest neighbour list constructed           ...    0.0 sec
Grid point re-assignment to atoms done       ...    0.0 sec
Grid point division into batches done        ...    0.0 sec
Reduced shell lists constructed in    0.3 sec

Total number of grid points                  ...    25848
Total number of batches                      ...      414
Average number of points per batch           ...       62
Average number of grid points per atom       ...     1231
Average number of shells per batch           ...    50.68 (62.56%)
Average number of basis functions per batch  ...    89.64 (67.40%)
Average number of large shells per batch     ...    36.34 (71.71%)
Average number of large basis fcns per batch ...    65.84 (73.45%)
Maximum spatial batch extension              ...  17.55, 19.49, 25.60 au
Average spatial batch extension              ...   3.29,  3.47,  3.93 au

Time for grid setup =    0.452 sec

------------------------------
INITIAL GUESS: MODEL POTENTIAL
------------------------------
Loading Hartree-Fock densities                     ... done
Calculating cut-offs                               ... done
Setting up the integral package                    ... done
Initializing the effective Hamiltonian             ... done
Starting the Coulomb interaction                   ... done (   0.3 sec)
Reading the grid                                   ... done
Mapping shells                                     ... done
Starting the XC term evaluation                    ... done (   0.3 sec)
  promolecular density results
     # of electrons  =     93.995068301
     EX              =    -81.421450878
     EC              =     -3.253784450
     EX+EC           =    -84.675235328
Transforming the Hamiltonian                       ... done (   0.0 sec)
Diagonalizing the Hamiltonian                      ... done (   0.0 sec)
Back transforming the eigenvectors                 ... done (   0.0 sec)
Now organizing SCF variables                       ... done
                      ------------------
                      INITIAL GUESS DONE (   1.2 sec)
                      ------------------
--------------
SCF ITERATIONS
--------------
ITER       Energy         Delta-E        Max-DP      RMS-DP      [F,P]     Damp
               ***  Starting incremental Fock matrix formation  ***
  0   -647.7244866958   0.000000000000 0.11265453  0.00491332  0.2717557 0.7000
  1   -647.9269478702  -0.202461174385 0.06159402  0.00284349  0.0975195 0.7000
                               ***Turning on DIIS***
  2   -647.9927455606  -0.065797690402 0.06441299  0.00377778  0.0420177 0.0000
  3   -648.1153066002  -0.122561039623 0.03896038  0.00188250  0.0547646 0.0000
  4   -648.1343809332  -0.019074332978 0.01264954  0.00068041  0.0211179 0.0000
  5   -648.1371653527  -0.002784419516 0.00329274  0.00019971  0.0035465 0.0000
                      *** Initiating the SOSCF procedure ***
                           *** Shutting down DIIS ***
                      *** Re-Reading the Fockian *** 
                      *** Removing any level shift *** 
ITER      Energy       Delta-E        Grad      Rot      Max-DP    RMS-DP
  6   -648.13725668  -0.0000913242  0.000392  0.000392  0.001533  0.000064
               *** Restarting incremental Fock matrix formation ***
  7   -648.13727025  -0.0000135688  0.000148  0.000721  0.000695  0.000032
  8   -648.13727036  -0.0000001121  0.000156  0.000287  0.000375  0.000016
  9   -648.13727130  -0.0000009434  0.000111  0.000254  0.000335  0.000010
 10   -648.13727121   0.0000000926  0.000122  0.000138  0.000217  0.000006
 11   -648.13727143  -0.0000002258  0.000016  0.000043  0.000086  0.000003
 12   -648.13727142   0.0000000156  0.000024  0.000026  0.000051  0.000002
 13   -648.13727145  -0.0000000271  0.000005  0.000016  0.000023  0.000001
 14   -648.13727145   0.0000000007  0.000010  0.000011  0.000016  0.000000
                  ***Gradient check signals convergence***
              ***Rediagonalizing the Fockian in SOSCF/NRSCF***

               *****************************************************
               *                     SUCCESS                       *
               *           SCF CONVERGED AFTER  15 CYCLES          *
               *****************************************************

Setting up the final grid:

General Integration Accuracy     IntAcc      ...  4.670
Radial Grid Type                 RadialGrid  ... Gauss-Chebyshev
Angular Grid (max. acc.)         AngularGrid ... Lebedev-302
Angular grid pruning method      GridPruning ... 3 (G Style)
Weight generation scheme         WeightScheme... Becke
Basis function cutoff            BFCut       ...    1.0000e-11
Integration weight cutoff        WCut        ...    1.0000e-14
Grids for H and He will be reduced by one unit

# of grid points (after initial pruning)     ... 107908 (   0.0 sec)
# of grid points (after weights+screening)   ...  97468 (   0.4 sec)
nearest neighbour list constructed           ...    0.0 sec
Grid point re-assignment to atoms done       ...    0.0 sec
Grid point division into batches done        ...    0.3 sec
Reduced shell lists constructed in    1.4 sec

Total number of grid points                  ...    97468
Total number of batches                      ...     1534
Average number of points per batch           ...       63
Average number of grid points per atom       ...     4641
Average number of shells per batch           ...    45.96 (56.74%)
Average number of basis functions per batch  ...    81.63 (61.38%)
Average number of large shells per batch     ...    32.33 (70.34%)
Average number of large basis fcns per batch ...    58.81 (72.05%)
Maximum spatial batch extension              ...  18.32, 19.16, 21.17 au
Average spatial batch extension              ...   2.30,  2.39,  2.56 au

Final grid set up in    1.9 sec
Final integration                            ... done (   1.1 sec)
Change in XC energy                          ...    -0.000027746
Integrated number of electrons               ...    93.999997518
Previous integrated no of electrons          ...    94.000871862

----------------
TOTAL SCF ENERGY
----------------

Total Energy       :         -648.13729919 Eh          -17636.71254 eV

Components:
Nuclear Repulsion  :          782.66116158 Eh           21297.29294 eV
Electronic Energy  :        -1430.79846077 Eh          -38934.00548 eV

One Electron Energy:        -2436.33345833 Eh          -66296.00382 eV
Two Electron Energy:         1005.53499756 Eh           27361.99834 eV

Virial components:
Potential Energy   :        -1293.28564161 Eh          -35192.09144 eV
Kinetic Energy     :          645.14834241 Eh           17555.37890 eV
Virial Ratio       :            2.00463298


DFT components:
N(Alpha)           :       46.999998759005 electrons
N(Beta)            :       46.999998759005 electrons
N(Total)           :       93.999997518011 electrons
E(X)               :      -65.538184013975 Eh       
E(C)               :       -3.831681394920 Eh       
E(XC)              :      -69.369865408895 Eh       

---------------
SCF CONVERGENCE
---------------

  Last Energy change         ...   -9.4826e-10  Tolerance :   1.0000e-08
  Last MAX-Density change    ...    5.9167e-06  Tolerance :   1.0000e-07
  Last RMS-Density change    ...    2.1875e-07  Tolerance :   5.0000e-09
  Last Orbital Gradient      ...    9.6399e-07  Tolerance :   1.0000e-05
  Last Orbital Rotation      ...    3.0785e-06  Tolerance :   1.0000e-05

             **** THE GBW FILE WAS UPDATED (b3lyp.gbw) ****
             **** DENSITY FILE WAS UPDATED (b3lyp.scfp.tmp) ****
             **** ENERGY FILE WAS UPDATED (b3lyp.en.tmp) ****
----------------
ORBITAL ENERGIES
----------------

  NO   OCC          E(Eh)            E(eV) 
   0   2.0000     -19.204328      -522.5763 
   1   2.0000     -19.201012      -522.4861 
   2   2.0000     -19.150534      -521.1125 
   3   2.0000     -19.146842      -521.0121 
   4   2.0000     -10.335567      -281.2451 
   5   2.0000     -10.331981      -281.1475 
   6   2.0000     -10.269640      -279.4511 
   7   2.0000     -10.221298      -278.1357 
   8   2.0000     -10.208371      -277.7839 
   9   2.0000     -10.207363      -277.7565 
  10   2.0000     -10.204993      -277.6920 
  11   2.0000     -10.201565      -277.5987 
  12   2.0000     -10.189647      -277.2744 
  13   2.0000      -1.142263       -31.0826 
  14   2.0000      -1.126405       -30.6510 
  15   2.0000      -1.046137       -28.4668 
  16   2.0000      -1.037755       -28.2387 
  17   2.0000      -0.880039       -23.9471 
  18   2.0000      -0.790542       -21.5117 
  19   2.0000      -0.781346       -21.2615 
  20   2.0000      -0.744728       -20.2651 
  21   2.0000      -0.680134       -18.5074 
  22   2.0000      -0.645097       -17.5540 
  23   2.0000      -0.610768       -16.6198 
  24   2.0000      -0.587634       -15.9903 
  25   2.0000      -0.529618       -14.4116 
  26   2.0000      -0.509957       -13.8766 
  27   2.0000      -0.494214       -13.4482 
  28   2.0000      -0.489671       -13.3246 
  29   2.0000      -0.476548       -12.9675 
  30   2.0000      -0.472209       -12.8495 
  31   2.0000      -0.462236       -12.5781 
  32   2.0000      -0.457439       -12.4476 
  33   2.0000      -0.448351       -12.2003 
  34   2.0000      -0.410195       -11.1620 
  35   2.0000      -0.407019       -11.0755 
  36   2.0000      -0.403545       -10.9810 
  37   2.0000      -0.392867       -10.6905 
  38   2.0000      -0.378908       -10.3106 
  39   2.0000      -0.368731       -10.0337 
  40   2.0000      -0.365147        -9.9361 
  41   2.0000      -0.323990        -8.8162 
  42   2.0000      -0.312321        -8.4987 
  43   2.0000      -0.287406        -7.8207 
  44   2.0000      -0.280618        -7.6360 
  45   2.0000      -0.272115        -7.4046 
  46   2.0000      -0.262143        -7.1333 
  47   0.0000      -0.056692        -1.5427 
  48   0.0000      -0.016150        -0.4395 
  49   0.0000      -0.005139        -0.1398 
  50   0.0000       0.046727         1.2715 
  51   0.0000       0.067041         1.8243 
  52   0.0000       0.088149         2.3987 
  53   0.0000       0.113516         3.0889 
  54   0.0000       0.135095         3.6761 
  55   0.0000       0.141999         3.8640 
  56   0.0000       0.154509         4.2044 
  57   0.0000       0.162975         4.4348 
  58   0.0000       0.170516         4.6400 
  59   0.0000       0.178358         4.8534 
  60   0.0000       0.189062         5.1446 
  61   0.0000       0.221379         6.0240 
  62   0.0000       0.237553         6.4641 
  63   0.0000       0.246282         6.7017 
  64   0.0000       0.265064         7.2128 
  65   0.0000       0.287844         7.8326 
  66   0.0000       0.319795         8.7021 
  67   0.0000       0.323014         8.7897 
  68   0.0000       0.349703         9.5159 
  69   0.0000       0.365611         9.9488 
  70   0.0000       0.396779        10.7969 
  71   0.0000       0.494590        13.4585 
  72   0.0000       0.501886        13.6570 
  73   0.0000       0.511679        13.9235 
  74   0.0000       0.534874        14.5547 
  75   0.0000       0.542823        14.7710 
  76   0.0000       0.554075        15.0771 
  77   0.0000       0.568118        15.4593 
  78   0.0000       0.581171        15.8145 
  79   0.0000       0.586077        15.9480 
  80   0.0000       0.592418        16.1205 
  81   0.0000       0.604330        16.4447 
  82   0.0000       0.615729        16.7548 
  83   0.0000       0.624725        16.9996 
  84   0.0000       0.632212        17.2034 
  85   0.0000       0.636026        17.3072 
  86   0.0000       0.648454        17.6453 
  87   0.0000       0.653707        17.7883 
  88   0.0000       0.666017        18.1232 
  89   0.0000       0.685545        18.6546 
  90   0.0000       0.693855        18.8808 
  91   0.0000       0.736455        20.0400 
  92   0.0000       0.761128        20.7113 
  93   0.0000       0.786380        21.3985 
  94   0.0000       0.806043        21.9336 
  95   0.0000       0.817386        22.2422 
  96   0.0000       0.826360        22.4864 
  97   0.0000       0.852271        23.1915 
  98   0.0000       0.857062        23.3218 
  99   0.0000       0.881053        23.9747 
 100   0.0000       0.891329        24.2543 
 101   0.0000       0.905766        24.6471 
 102   0.0000       0.927795        25.2466 
 103   0.0000       0.934635        25.4327 
 104   0.0000       0.950608        25.8674 
 105   0.0000       0.954926        25.9848 
 106   0.0000       0.965227        26.2651 
 107   0.0000       0.981790        26.7159 
 108   0.0000       0.982240        26.7281 
 109   0.0000       0.999003        27.1843 
 110   0.0000       1.025444        27.9038 
 111   0.0000       1.038377        28.2557 
 112   0.0000       1.053373        28.6637 
 113   0.0000       1.085479        29.5374 
 114   0.0000       1.113229        30.2925 
 115   0.0000       1.124525        30.5999 
 116   0.0000       1.133937        30.8560 
 117   0.0000       1.177400        32.0387 
 118   0.0000       1.205741        32.8099 
 119   0.0000       1.212988        33.0071 
 120   0.0000       1.251368        34.0515 
 121   0.0000       1.292771        35.1781 
 122   0.0000       1.331212        36.2241 
 123   0.0000       1.415090        38.5065 
 124   0.0000       1.443268        39.2733 
 125   0.0000       1.464955        39.8635 
 126   0.0000       1.489943        40.5434 
 127   0.0000       1.576119        42.8884 
 128   0.0000       1.780939        48.4618 
 129   0.0000       1.821079        49.5541 
 130   0.0000       1.914547        52.0975 
 131   0.0000       2.086792        56.7845 
 132   0.0000       2.119982        57.6876 

                    ********************************
                    * MULLIKEN POPULATION ANALYSIS *
                    ********************************

-----------------------
MULLIKEN ATOMIC CHARGES
-----------------------
   0 C :   -0.160169
   1 C :   -0.098930
   2 C :   -0.118386
   3 C :   -0.115581
   4 C :   -0.455712
   5 C :    0.130066
   6 C :    0.225918
   7 O :   -0.394759
   8 O :   -0.390539
   9 O :   -0.536956
  10 C :    0.399476
  11 C :    0.501323
  12 O :   -0.512242
  13 H :    0.385855
  14 H :    0.177749
  15 H :    0.145767
  16 H :    0.142068
  17 H :    0.142806
  18 H :    0.185301
  19 H :    0.172311
  20 H :    0.174632
Sum of atomic charges:   -0.0000000

--------------------------------
MULLIKEN REDUCED ORBITAL CHARGES
--------------------------------
  0 C s       :     3.228378  s :     3.228378
      pz      :     0.957809  p :     2.931791
      px      :     0.971549
      py      :     1.002433
  1 C s       :     3.194658  s :     3.194658
      pz      :     1.010715  p :     2.904272
      px      :     0.935355
      py      :     0.958203
  2 C s       :     3.198789  s :     3.198789
      pz      :     0.988328  p :     2.919597
      px      :     1.010744
      py      :     0.920525
  3 C s       :     3.202394  s :     3.202394
      pz      :     0.961230  p :     2.913186
      px      :     0.952315
      py      :     0.999641
  4 C s       :     3.339690  s :     3.339690
      pz      :     1.085807  p :     3.116022
      px      :     0.930653
      py      :     1.099563
  5 C s       :     3.140284  s :     3.140284
      pz      :     1.021437  p :     2.729650
      px      :     0.861174
      py      :     0.847038
  6 C s       :     3.143130  s :     3.143130
      pz      :     0.975841  p :     2.630952
      px      :     0.636530
      py      :     1.018580
  7 O s       :     3.930425  s :     3.930425
      pz      :     1.402181  p :     4.464334
      px      :     1.628593
      py      :     1.433561
  8 O s       :     3.950627  s :     3.950627
      pz      :     1.336957  p :     4.439912
      px      :     1.718909
      py      :     1.384047
  9 O s       :     3.924353  s :     3.924353
      pz      :     1.763810  p :     4.612603
      px      :     1.391936
      py      :     1.456857
 10 C s       :     2.950900  s :     2.950900
      pz      :     0.849729  p :     2.649623
      px      :     0.781804
      py      :     1.018090
 11 C s       :     3.009791  s :     3.009791
      pz      :     0.735730  p :     2.488886
      px      :     0.937816
      py      :     0.815340
 12 O s       :     3.951010  s :     3.951010
      pz      :     1.544247  p :     4.561232
      px      :     1.270001
      py      :     1.746984
 13 H s       :     0.614145  s :     0.614145
 14 H s       :     0.822251  s :     0.822251
 15 H s       :     0.854233  s :     0.854233
 16 H s       :     0.857932  s :     0.857932
 17 H s       :     0.857194  s :     0.857194
 18 H s       :     0.814699  s :     0.814699
 19 H s       :     0.827689  s :     0.827689
 20 H s       :     0.825368  s :     0.825368


                     *******************************
                     * LOEWDIN POPULATION ANALYSIS *
                     *******************************

----------------------
LOEWDIN ATOMIC CHARGES
----------------------
   0 C :   -0.070415
   1 C :   -0.119923
   2 C :   -0.114465
   3 C :   -0.086804
   4 C :   -0.344672
   5 C :   -0.082721
   6 C :    0.133001
   7 O :   -0.286785
   8 O :   -0.262928
   9 O :   -0.307857
  10 C :    0.236154
  11 C :    0.264363
  12 O :   -0.207086
  13 H :    0.303151
  14 H :    0.143552
  15 H :    0.132809
  16 H :    0.125312
  17 H :    0.125561
  18 H :    0.145507
  19 H :    0.133784
  20 H :    0.140465

-------------------------------
LOEWDIN REDUCED ORBITAL CHARGES
-------------------------------
  0 C s       :     2.944406  s :     2.944406
      pz      :     0.972840  p :     3.126009
      px      :     1.064104
      py      :     1.089065
  1 C s       :     2.946159  s :     2.946159
      pz      :     1.024555  p :     3.173764
      px      :     1.082323
      py      :     1.066887
  2 C s       :     2.941027  s :     2.941027
      pz      :     1.010658  p :     3.173438
      px      :     1.094287
      py      :     1.068493
  3 C s       :     2.943812  s :     2.943812
      pz      :     0.980169  p :     3.142993
      px      :     1.078969
      py      :     1.083856
  4 C s       :     2.996428  s :     2.996428
      pz      :     1.145022  p :     3.348244
      px      :     1.058222
      py      :     1.145000
  5 C s       :     2.914259  s :     2.914259
      pz      :     1.049644  p :     3.168463
      px      :     1.078049
      py      :     1.040769
  6 C s       :     2.895890  s :     2.895890
      pz      :     1.001922  p :     2.971109
      px      :     0.873725
      py      :     1.095462
  7 O s       :     3.626187  s :     3.626187
      pz      :     1.430439  p :     4.660598
      px      :     1.704197
      py      :     1.525962
  8 O s       :     3.635378  s :     3.635378
      pz      :     1.449056  p :     4.627550
      px      :     1.779453
      py      :     1.399042
  9 O s       :     3.586620  s :     3.586620
      pz      :     1.769633  p :     4.721237
      px      :     1.452341
      py      :     1.499264
 10 C s       :     2.889404  s :     2.889404
      pz      :     0.879345  p :     2.874442
      px      :     0.938517
      py      :     1.056580
 11 C s       :     2.911769  s :     2.911769
      pz      :     0.970948  p :     2.823868
      px      :     1.018400
      py      :     0.834520
 12 O s       :     3.546730  s :     3.546730
      pz      :     1.589482  p :     4.660357
      px      :     1.309035
      py      :     1.761840
 13 H s       :     0.696849  s :     0.696849
 14 H s       :     0.856448  s :     0.856448
 15 H s       :     0.867191  s :     0.867191
 16 H s       :     0.874688  s :     0.874688
 17 H s       :     0.874439  s :     0.874439
 18 H s       :     0.854493  s :     0.854493
 19 H s       :     0.866216  s :     0.866216
 20 H s       :     0.859535  s :     0.859535


                      *****************************
                      * MAYER POPULATION ANALYSIS *
                      *****************************

  NA   - Mulliken gross atomic population
  ZA   - Total nuclear charge
  QA   - Mulliken gross atomic charge
  VA   - Mayer's total valence
  BVA  - Mayer's bonded valence
  FA   - Mayer's free valence

  ATOM       NA         ZA         QA         VA         BVA        FA
  0 C      6.1602     6.0000    -0.1602     3.8914     3.8914    -0.0000
  1 C      6.0989     6.0000    -0.0989     3.8581     3.8581    -0.0000
  2 C      6.1184     6.0000    -0.1184     3.8676     3.8676    -0.0000
  3 C      6.1156     6.0000    -0.1156     3.8898     3.8898    -0.0000
  4 C      6.4557     6.0000    -0.4557     3.7312     3.7312     0.0000
  5 C      5.8699     6.0000     0.1301     3.6838     3.6838    -0.0000
  6 C      5.7741     6.0000     0.2259     3.7824     3.7824    -0.0000
  7 O      8.3948     8.0000    -0.3948     2.0555     2.0555     0.0000
  8 O      8.3905     8.0000    -0.3905     2.0438     2.0438    -0.0000
  9 O      8.5370     8.0000    -0.5370     1.8320     1.8320     0.0000
 10 C      5.6005     6.0000     0.3995     3.8833     3.8833     0.0000
 11 C      5.4987     6.0000     0.5013     3.8031     3.8031    -0.0000
 12 O      8.5122     8.0000    -0.5122     1.7959     1.7959    -0.0000
 13 H      0.6141     1.0000     0.3859     0.8425     0.8425     0.0000
 14 H      0.8223     1.0000     0.1777     0.9419     0.9419    -0.0000
 15 H      0.8542     1.0000     0.1458     0.9428     0.9428    -0.0000
 16 H      0.8579     1.0000     0.1421     0.9418     0.9418    -0.0000
 17 H      0.8572     1.0000     0.1428     0.9409     0.9409    -0.0000
 18 H      0.8147     1.0000     0.1853     0.9337     0.9337     0.0000
 19 H      0.8277     1.0000     0.1723     0.9360     0.9360     0.0000
 20 H      0.8254     1.0000     0.1746     0.9336     0.9336     0.0000

  Mayer bond orders larger than 0.1
B(  0-C ,  2-C ) :   1.4364 B(  0-C ,  5-C ) :   1.3716 B(  0-C , 14-H ) :   0.9128 
B(  1-C ,  3-C ) :   1.4308 B(  1-C ,  6-C ) :   1.4121 B(  1-C , 15-H ) :   0.9234 
B(  2-C ,  3-C ) :   1.4274 B(  2-C , 16-H ) :   0.9307 B(  3-C , 17-H ) :   0.9275 
B(  4-C , 11-C ) :   0.9473 B(  4-C , 18-H ) :   0.9296 B(  4-C , 19-H ) :   0.9440 
B(  4-C , 20-H ) :   0.9320 B(  5-C ,  6-C ) :   1.3289 B(  5-C , 10-C ) :   0.9202 
B(  6-C , 12-O ) :   0.8240 B(  7-O , 10-C ) :   1.8829 B(  8-O , 11-C ) :   1.9145 
B(  9-O , 10-C ) :   1.0006 B(  9-O , 13-H ) :   0.7763 B( 11-C , 12-O ) :   0.8964 


-------
TIMINGS
-------

Total SCF time: 0 days 0 hours 1 min 7 sec 

Total time                  ....      67.944 sec
Sum of individual times     ....      69.574 sec  (102.4%)

Fock matrix formation       ....      66.005 sec  ( 97.1%)
  Coulomb formation         ....      60.032 sec  ( 91.0% of F)
  XC integration            ....       5.842 sec  (  8.9% of F)
    Basis function eval.    ....       3.039 sec  ( 52.0% of XC)
    Density eval.           ....       0.942 sec  ( 16.1% of XC)
    XC-Functional eval.     ....       0.533 sec  (  9.1% of XC)
    XC-Potential eval.      ....       1.219 sec  ( 20.9% of XC)
Diagonalization             ....       0.026 sec  (  0.0%)
Density matrix formation    ....       0.006 sec  (  0.0%)
Population analysis         ....       0.008 sec  (  0.0%)
Initial guess               ....       1.203 sec  (  1.8%)
Orbital Transformation      ....       0.000 sec  (  0.0%)
Orbital Orthonormalization  ....       0.000 sec  (  0.0%)
DIIS solution               ....       0.006 sec  (  0.0%)
SOSCF solution              ....       0.015 sec  (  0.0%)
Grid generation             ....       2.305 sec  (  3.4%)

-------------------------   --------------------
FINAL SINGLE POINT ENERGY      -648.137299191876
-------------------------   --------------------

------------------------------------------------------------------------------
                         ORCA SCF GRADIENT CALCULATION
------------------------------------------------------------------------------

Gradient of the Kohn-Sham DFT energy:
Kohn-Sham wavefunction type      ... RKS
Hartree-Fock exchange scaling    ...    0.200
Number of operators              ...    1
Number of atoms                  ...   21
Basis set dimensions             ...  133
Integral neglect threshold       ... 2.5e-11
Integral primitive cutoff        ... 2.5e-12

Nuclear repulsion gradient       ... done
One Electron Gradient            ... done
Pre-screening matrix             ... done
Starting the two electron gradient:
Two electron gradient done
Exchange-correlation gradient    ... done

------------------
CARTESIAN GRADIENT
------------------

   1   C   :   -0.009282051   -0.004281599   -0.000203625
   2   C   :    0.000450110    0.000237613   -0.000918783
   3   C   :   -0.004110761    0.006380752   -0.003333758
   4   C   :   -0.001121112   -0.004223449    0.001654713
   5   C   :    0.005151456   -0.001381627   -0.007839397
   6   C   :   -0.001924286    0.008179691   -0.002991077
   7   C   :   -0.022827655   -0.008759810    0.013540319
   8   O   :   -0.021706245    0.025906927   -0.014470055
   9   O   :   -0.014344450    0.000629070    0.000118356
  10   O   :    0.024138591    0.007154365    0.002426649
  11   C   :   -0.013212081   -0.037246442    0.009148657
  12   C   :    0.039842947    0.001167121    0.000798775
  13   O   :   -0.003959603   -0.003261662   -0.010906109
  14   H   :    0.012797185    0.003762546    0.002200690
  15   H   :    0.006071818   -0.000343757    0.001520256
  16   H   :    0.002148641    0.003404770   -0.000855143
  17   H   :    0.001808212    0.000686146    0.000068059
  18   H   :    0.001218397    0.000801010    0.000160538
  19   H   :   -0.000477662   -0.000999659    0.004613911
  20   H   :   -0.001926580   -0.000360886    0.001072915
  21   H   :    0.001265128    0.002548882    0.004194108

Norm of the cartesian gradient     ...    0.083802336
RMS gradient                       ...    0.010558102
MAX gradient                       ...    0.039842947

-------
TIMINGS
-------

Total SCF gradient time            ...       20.873 sec

One electron gradient       ....       0.224 sec  (  1.1%)
Prescreening matrices       ....       0.058 sec  (  0.3%)
Two electron gradient       ....      12.705 sec  ( 60.9%)
XC gradient                 ....       7.792 sec  ( 37.3%)
------------------------------------------------------------------------------
                         ORCA GEOMETRY RELAXATION STEP
------------------------------------------------------------------------------

Reading the OPT-File                    .... done
Getting information on internals        .... done
Copying old internal coords+grads       .... done
Making the new internal coordinates     .... (new redundants).... done
Validating the new internal coordinates .... (new redundants).... done
Calculating the B-matrix                .... done
Calculating the G,G- and P matrices     .... done
Transforming gradient to internals      .... done
Projecting the internal gradient        .... done
Number of atoms                         ....  21
Number of internal coordinates          ....  93
Current Energy                          ....  -648.137299192 Eh
Current gradient norm                   ....     0.083802336 Eh/bohr
Maximum allowed component of the step   ....  0.300
Current trust radius                    ....  0.300
Evaluating the initial hessian          ....  (Almloef) done
Projecting the Hessian                  .... done
Forming the augmented Hessian           .... done
Diagonalizing the augmented Hessian     .... done
Last element of RFO vector              ....  0.977786764
Lowest eigenvalues of augmented Hessian:
 -0.012950734  0.012933945  0.013366562  0.015495599  0.019279626
Length of the computed step             ....  0.214363826
The final length of the internal step   ....  0.214363826
Converting the step to cartesian space:
 Initial RMS(Int)=    0.0222284932
Transforming coordinates:
 Iter   0:  RMS(Cart)=    0.1212392556 RMS(Int)=    1.1264956324
 Iter   1:  RMS(Cart)=    0.0075084084 RMS(Int)=    0.0030512890
 Iter   2:  RMS(Cart)=    0.0006224653 RMS(Int)=    0.0002107038
 Iter   3:  RMS(Cart)=    0.0000847951 RMS(Int)=    0.0000309067
 Iter   4:  RMS(Cart)=    0.0000070806 RMS(Int)=    0.0000031315
 Iter   5:  RMS(Cart)=    0.0000009147 RMS(Int)=    0.0000003421
 Iter   6:  RMS(Cart)=    0.0000000811 RMS(Int)=    0.0000000420
done
Storing new coordinates                 .... done

                                .--------------------.
          ----------------------|Geometry convergence|---------------------
          Item                value                 Tolerance   Converged
          -----------------------------------------------------------------
          RMS gradient        0.00849376            0.00010000      NO
          MAX gradient        0.03966005            0.00030000      NO
          RMS step            0.02222849            0.00200000      NO
          MAX step            0.09351414            0.00400000      NO
          ....................................................
          Max(Bonds)      0.0295      Max(Angles)    5.36
          Max(Dihed)        3.90      Max(Improp)    0.00
          -----------------------------------------------------------------

The optimization has not yet converged - more geometry cycles are needed


    ---------------------------------------------------------------------------
                         Redundant Internal Coordinates
                            (Angstroem and degrees)

        Definition                    Value    dE/dq     Step     New-Value
    ----------------------------------------------------------------------------
     1. B(C   2,C   0)                1.3983  0.003286 -0.0028    1.3955   
     2. B(C   3,C   2)                1.3933 -0.006144  0.0052    1.3984   
     3. B(C   3,C   1)                1.3936 -0.003713  0.0032    1.3968   
     4. B(C   5,C   0)                1.4051 -0.001717  0.0015    1.4066   
     5. B(C   6,C   5)                1.4013 -0.006662  0.0057    1.4071   
     6. B(C   6,C   1)                1.4006  0.003742 -0.0032    1.3974   
     7. B(C  10,C   5)                1.4850 -0.000618  0.0007    1.4857   
     8. B(C  10,O   9)                1.3438 -0.037656  0.0295    1.3733   
     9. B(C  10,O   7)                1.2189 -0.036407  0.0181    1.2370   
    10. B(C  11,O   8)                1.2241 -0.004277  0.0022    1.2262   
    11. B(C  11,C   4)                1.4993 -0.004387  0.0054    1.5047   
    12. B(O  12,C  11)                1.3900 -0.014091  0.0130    1.4030   
    13. B(O  12,C   6)                1.3969 -0.023232  0.0220    1.4190   
    14. B(H  13,O   9)                0.9806 -0.005900  0.0063    0.9869   
    15. B(H  14,C   0)                1.0893  0.003915 -0.0055    1.0838   
    16. B(H  15,C   1)                1.0865  0.001948 -0.0027    1.0838   
    17. B(H  16,C   2)                1.0875  0.001830 -0.0026    1.0849   
    18. B(H  17,C   3)                1.0871  0.001247 -0.0018    1.0854   
    19. B(H  18,C   4)                1.0929 -0.000447  0.0006    1.0935   
    20. B(H  19,C   4)                1.0945  0.001890 -0.0027    1.0918   
    21. B(H  20,C   4)                1.0924 -0.001534  0.0022    1.0946   
    22. A(C   5,C   0,H  14)          120.20  0.006139   -0.94    119.25   
    23. A(C   2,C   0,C   5)          120.83 -0.002203    0.30    121.13   
    24. A(C   2,C   0,H  14)          118.97 -0.003937    0.65    119.62   
    25. A(C   3,C   1,C   6)          119.91 -0.001210    0.18    120.09   
    26. A(C   6,C   1,H  15)          120.26  0.004327   -0.67    119.59   
    27. A(C   3,C   1,H  15)          119.83 -0.003121    0.50    120.33   
    28. A(C   3,C   2,H  16)          120.06 -0.001564    0.23    120.29   
    29. A(C   0,C   2,H  16)          119.86 -0.000271    0.02    119.89   
    30. A(C   0,C   2,C   3)          120.08  0.001835   -0.25    119.83   
    31. A(C   1,C   3,H  17)          120.06  0.000758   -0.12    119.94   
    32. A(C   1,C   3,C   2)          119.90  0.000031    0.01    119.90   
    33. A(C   2,C   3,H  17)          120.04 -0.000789    0.12    120.16   
    34. A(H  18,C   4,H  20)          110.68  0.004444   -1.35    109.34   
    35. A(C  11,C   4,H  20)          109.85 -0.002412    0.29    110.14   
    36. A(H  18,C   4,H  19)          108.47 -0.002050    0.66    109.13   
    37. A(C  11,C   4,H  19)          109.30  0.000698    0.12    109.42   
    38. A(H  19,C   4,H  20)          108.62 -0.000812    0.43    109.05   
    39. A(C  11,C   4,H  18)          109.89  0.000102   -0.13    109.76   
    40. A(C   0,C   5,C  10)          116.52  0.003701   -0.50    116.02   
    41. A(C   0,C   5,C   6)          118.30  0.000316   -0.05    118.25   
    42. A(C   6,C   5,C  10)          125.18 -0.004020    0.55    125.73   
    43. A(C   5,C   6,O  12)          122.70  0.001423   -0.20    122.50   
    44. A(C   1,C   6,O  12)          116.28 -0.002620    0.34    116.62   
    45. A(C   1,C   6,C   5)          120.97  0.001216   -0.16    120.81   
    46. A(C  10,O   9,H  13)          103.14 -0.022543    3.38    106.52   
    47. A(O   7,C  10,O   9)          120.00 -0.003644    0.43    120.42   
    48. A(C   5,C  10,O   9)          114.98 -0.004523    0.61    115.59   
    49. A(C   5,C  10,O   7)          125.02  0.008156   -1.02    124.00   
    50. A(C   4,C  11,O  12)          108.76 -0.008644    1.13    109.89   
    51. A(C   4,C  11,O   8)          124.34 -0.011523    1.38    125.73   
    52. A(O   8,C  11,O  12)          126.89  0.020165   -2.51    124.39   
    53. A(C   6,O  12,C  11)          112.52 -0.039660    5.36    117.88   
    54. D(C   3,C   2,C   0,H  14)    179.67 -0.000265    0.39    180.06   
    55. D(H  16,C   2,C   0,C   5)    179.89  0.000090   -0.14    179.75   
    56. D(H  16,C   2,C   0,H  14)     -0.25 -0.000158    0.23     -0.02   
    57. D(C   3,C   2,C   0,C   5)     -0.19 -0.000018    0.02     -0.17   
    58. D(H  17,C   3,C   1,C   6)   -179.36  0.000303   -0.47   -179.83   
    59. D(C   1,C   3,C   2,H  16)   -179.75 -0.000020    0.03   -179.72   
    60. D(C   2,C   3,C   1,C   6)      0.49  0.000168   -0.29      0.20   
    61. D(H  17,C   3,C   2,H  16)      0.10 -0.000153    0.21      0.31   
    62. D(H  17,C   3,C   2,C   0)   -179.83 -0.000046    0.05   -179.77   
    63. D(C   2,C   3,C   1,H  15)   -179.98 -0.000313    0.44   -179.54   
    64. D(H  17,C   3,C   1,H  15)      0.17 -0.000177    0.26      0.42   
    65. D(C   1,C   3,C   2,C   0)      0.33  0.000087   -0.13      0.20   
    66. D(C   6,C   5,C   0,H  14)    179.39 -0.000094    0.12    179.51   
    67. D(C  10,C   5,C   0,C   2)    178.84 -0.000846    1.29    180.13   
    68. D(C   6,C   5,C   0,C   2)     -0.76 -0.000359    0.50     -0.26   
    69. D(C  10,C   5,C   0,H  14)     -1.02 -0.000581    0.91     -0.10   
    70. D(O  12,C   6,C   5,C  10)     -0.66  0.001568   -2.51     -3.17   
    71. D(C   1,C   6,C   5,C  10)   -177.97  0.001146   -1.79   -179.76   
    72. D(C   1,C   6,C   5,C   0)      1.58  0.000649   -0.93      0.66   
    73. D(O  12,C   6,C   1,H  15)      1.53 -0.000547    0.79      2.32   
    74. D(O  12,C   6,C   1,C   3)   -178.95 -0.001065    1.53   -177.42   
    75. D(O  12,C   6,C   5,C   0)    178.90  0.001071   -1.65    177.24   
    76. D(C   5,C   6,C   1,H  15)    179.01 -0.000054    0.10    179.10   
    77. D(C   5,C   6,C   1,C   3)     -1.47 -0.000572    0.83     -0.64   
    78. D(O   7,C  10,O   9,H  13)      0.59  0.000466   -0.86     -0.28   
    79. D(C   5,C  10,O   9,H  13)    179.86 -0.000383    0.76    180.62   
    80. D(O   9,C  10,C   5,C   6)      3.28  0.001148   -2.41      0.88   
    81. D(O   9,C  10,C   5,C   0)   -176.28  0.001650   -3.25   -179.53   
    82. D(O   7,C  10,C   5,C   6)   -177.48  0.000146   -0.67   -178.16   
    83. D(O   7,C  10,C   5,C   0)      2.95  0.000648   -1.52      1.43   
    84. D(O   8,C  11,C   4,H  18)   -120.55  0.001857   -0.41   -120.95   
    85. D(O  12,C  11,C   4,H  20)    -62.12 -0.002036    0.79    -61.33   
    86. D(O  12,C  11,C   4,H  19)    178.80 -0.000019    0.02    178.82   
    87. D(O  12,C  11,C   4,H  18)     59.88  0.002000   -0.78     59.10   
    88. D(O   8,C  11,C   4,H  20)    117.45 -0.002179    1.17    118.62   
    89. D(O   8,C  11,C   4,H  19)     -1.63 -0.000162    0.40     -1.23   
    90. D(C   6,O  12,C  11,O   8)      2.85  0.000496   -0.74      2.11   
    91. D(C   6,O  12,C  11,C   4)   -177.59  0.000171   -0.33   -177.92   
    92. D(C  11,O  12,C   6,C   5)     86.32  0.001882   -3.19     83.14   
    93. D(C  11,O  12,C   6,C   1)    -96.24  0.002377   -3.90   -100.14   
    ----------------------------------------------------------------------------

         *************************************************************
         *                GEOMETRY OPTIMIZATION CYCLE   2            *
         *************************************************************
---------------------------------
CARTESIAN COORDINATES (ANGSTROEM)
---------------------------------
  C      2.100607   -0.175653    0.340676
  C      0.733013    2.064206   -0.602712
  C      2.800243    1.000388    0.067220
  C      2.114850    2.122974   -0.407808
  C     -3.660857    1.010845   -0.011261
  C      0.709226   -0.255013    0.150328
  C      0.035139    0.887147   -0.319660
  O      0.699479   -2.534623    0.922275
  O     -1.888026    1.300593    1.630580
  O     -1.277279   -1.630609    0.280945
  C      0.079725   -1.559864    0.479628
  C     -2.238976    1.091136    0.474467
  O     -1.356330    0.890676   -0.597557
  H     -1.553019   -2.539773    0.548195
  H      2.635017   -1.043315    0.709661
  H      0.196027    2.927739   -0.977605
  H      3.872828    1.040440    0.225127
  H      2.654109    3.039342   -0.625802
  H     -3.842232    0.031849   -0.463497
  H     -4.340786    1.146811    0.832091
  H     -3.850577    1.793386   -0.752771

----------------------------
CARTESIAN COORDINATES (A.U.)
----------------------------
  NO LB      ZA    FRAG    MASS        X           Y           Z
   0 C     6.0000    0    12.011          3.969572769648098         -0.331937007369411          0.643783617350017
   1 C     6.0000    0    12.011          1.385192946745122          3.900784449904167         -1.138960346885906
   2 C     6.0000    0    12.011          5.291691793986354          1.890458973724895          0.127028000011607
   3 C     6.0000    0    12.011          3.996486769982909          4.011839500098094         -0.770644646372375
   4 C     6.0000    0    12.011         -6.918017308734954          1.910219979879624         -0.021279933257132
   5 C     6.0000    0    12.011          1.340242075385540         -0.481904124342947          0.284078749804041
   6 C     6.0000    0    12.011          0.066403503009832          1.676464511552547         -0.604070268248590
   7 O     8.0000    0    15.999          1.321823933276188         -4.789744233207835          1.742846596917351
   8 O     8.0000    0    15.999         -3.567852427602681          2.457763975426488          3.081349184931117
   9 O     8.0000    0    15.999         -2.413706935281739         -3.081405094245868          0.530908601924534
  10 C     6.0000    0    12.011          0.150658735895695         -2.947715673718436          0.906364680640674
  11 C     6.0000    0    12.011         -4.231052158717227          2.061948804535539          0.896612171398839
  12 O     8.0000    0    15.999         -2.563093152975934          1.683134477828414         -1.129218258016550
  13 H     1.0000    0     1.008         -2.934780895174073         -4.799476107106175          1.035938989382882
  14 H     1.0000    0     1.008          4.979459835648033         -1.971578733975719          1.341064999523101
  15 H     1.0000    0     1.008          0.370437477779308          5.532624618515415         -1.847405402780216
  16 H     1.0000    0     1.008          7.318584868029002          1.966145770590057          0.425428569965561
  17 H     1.0000    0     1.008          5.015539125579222          5.743523230333339         -1.182594033327320
  18 H     1.0000    0     1.008         -7.260766602203338          0.060185034594878         -0.875883141431298
  19 H     1.0000    0     1.008         -8.202896053222863          2.167158654500462          1.572423741402969
  20 H     1.0000    0     1.008         -7.276535298576881          3.389008834890177         -1.422530108625445

--------------------------------
INTERNAL COORDINATES (ANGSTROEM)
--------------------------------
 C      0   0   0   0.000000     0.000     0.000
 C      1   0   0   2.788775     0.000     0.000
 C      1   2   0   1.395471    60.178     0.000
 C      2   1   3   1.396752    60.095     0.099
 C      2   1   3   4.556915   104.080   191.489
 C      1   2   3   1.406582    60.951   179.931
 C      2   1   3   1.397360    59.990   180.400
 O      6   1   2   2.406787    90.804   180.664
 O      5   2   1   2.433624    50.031    63.339
 O      8   6   1   2.266300    62.287   180.693
 C      8   6   1   1.237008    30.784   181.283
 C      9   5   2   1.226228    30.129   340.448
 O     12   9   5   1.403026   124.385   179.948
 H     10   8   6   0.986932    78.440   180.299
 H      1   2   3   1.083780   179.752    34.374
 H      2   1   3   1.083784   179.360   131.372
 H      3   1   2   1.084886   119.885   179.823
 H      4   2   1   1.085381   119.936   179.870
 H      5   2   1   1.093549   108.252   308.545
 H      5   2   1   1.091802   132.217    88.456
 H      5   2   1   1.094624    85.063   199.793

---------------------------
INTERNAL COORDINATES (A.U.)
---------------------------
 C      0   0   0   0.000000     0.000     0.000
 C      1   0   0   5.270021     0.000     0.000
 C      1   2   0   2.637059    60.178     0.000
 C      2   1   3   2.639478    60.095     0.099
 C      2   1   3   8.611321   104.080   191.489
 C      1   2   3   2.658055    60.951   179.931
 C      2   1   3   2.640627    59.990   180.400
 O      6   1   2   4.548168    90.804   180.664
 O      5   2   1   4.598882    50.031    63.339
 O      8   6   1   4.282687    62.287   180.693
 C      8   6   1   2.337605    30.784   181.283
 C      9   5   2   2.317235    30.129   340.448
 O     12   9   5   2.651335   124.385   179.948
 H     10   8   6   1.865031    78.440   180.299
 H      1   2   3   2.048047   179.752    34.374
 H      2   1   3   2.048054   179.360   131.372
 H      3   1   2   2.050138   119.885   179.823
 H      4   2   1   2.051073   119.936   179.870
 H      5   2   1   2.066507   108.252   308.545
 H      5   2   1   2.063207   132.217    88.456
 H      5   2   1   2.068539    85.063   199.793


Diagonalization of the overlap matrix:
Smallest eigenvalue                        ... 5.468e-04
Time for diagonalization                   ...    0.003 sec
Threshold for overlap eigenvalues          ... 1.000e-08
Number of eigenvalues below threshold      ... 0
Time for construction of square roots      ...    0.001 sec
Total time needed                          ...    0.004 sec

-------------------
DFT GRID GENERATION
-------------------

General Integration Accuracy     IntAcc      ...  4.340
Radial Grid Type                 RadialGrid  ... Gauss-Chebyshev
Angular Grid (max. acc.)         AngularGrid ... Lebedev-110
Angular grid pruning method      GridPruning ... 3 (G Style)
Weight generation scheme         WeightScheme... Becke
Basis function cutoff            BFCut       ...    1.0000e-11
Integration weight cutoff        WCut        ...    1.0000e-14
Grids for H and He will be reduced by one unit

# of grid points (after initial pruning)     ...  28120 (   0.0 sec)
# of grid points (after weights+screening)   ...  25887 (   0.1 sec)
nearest neighbour list constructed           ...    0.0 sec
Grid point re-assignment to atoms done       ...    0.0 sec
Grid point division into batches done        ...    0.0 sec
Reduced shell lists constructed in    0.3 sec

Total number of grid points                  ...    25887
Total number of batches                      ...      413
Average number of points per batch           ...       62
Average number of grid points per atom       ...     1233
Average number of shells per batch           ...    50.33 (62.13%)
Average number of basis functions per batch  ...    89.03 (66.94%)
Average number of large shells per batch     ...    36.01 (71.54%)
Average number of large basis fcns per batch ...    65.21 (73.25%)
Maximum spatial batch extension              ...  18.36, 21.51, 25.60 au
Average spatial batch extension              ...   3.32,  3.56,  4.02 au

Time for grid setup =    0.444 sec

--------------
SCF ITERATIONS
--------------
ITER       Energy         Delta-E        Max-DP      RMS-DP      [F,P]     Damp
               ***  Starting incremental Fock matrix formation  ***
  0   -648.1227449034   0.000000000000 0.01097733  0.00052505  0.0598933 0.7000
  1   -648.1285826627  -0.005837759269 0.01069045  0.00048537  0.0474206 0.7000
                               ***Turning on DIIS***
  2   -648.1332153042  -0.004632641489 0.02863675  0.00126520  0.0357113 0.0000
  3   -648.1449629971  -0.011747692955 0.00358276  0.00019226  0.0050883 0.0000
                      *** Initiating the SOSCF procedure ***
                           *** Shutting down DIIS ***
                      *** Re-Reading the Fockian *** 
                      *** Removing any level shift *** 
ITER      Energy       Delta-E        Grad      Rot      Max-DP    RMS-DP
  4   -648.14513413  -0.0001711310  0.000684  0.000684  0.001360  0.000074
               *** Restarting incremental Fock matrix formation ***
  5   -648.14516176  -0.0000276318  0.000430  0.001911  0.001260  0.000057
  6   -648.14516792  -0.0000061597  0.000174  0.001131  0.000769  0.000039
  7   -648.14516864  -0.0000007244  0.000179  0.000533  0.000397  0.000021
  8   -648.14516983  -0.0000011813  0.000110  0.000253  0.000474  0.000016
  9   -648.14516964   0.0000001864  0.000109  0.000201  0.000257  0.000010
 10   -648.14517004  -0.0000004025  0.000016  0.000037  0.000079  0.000004
 11   -648.14517003   0.0000000118  0.000021  0.000026  0.000053  0.000002
 12   -648.14517005  -0.0000000253  0.000010  0.000026  0.000032  0.000001
 13   -648.14517005   0.0000000032  0.000017  0.000018  0.000021  0.000001
                  ***Gradient check signals convergence***
              ***Rediagonalizing the Fockian in SOSCF/NRSCF***

               *****************************************************
               *                     SUCCESS                       *
               *           SCF CONVERGED AFTER  14 CYCLES          *
               *****************************************************

Setting up the final grid:

General Integration Accuracy     IntAcc      ...  4.670
Radial Grid Type                 RadialGrid  ... Gauss-Chebyshev
Angular Grid (max. acc.)         AngularGrid ... Lebedev-302
Angular grid pruning method      GridPruning ... 3 (G Style)
Weight generation scheme         WeightScheme... Becke
Basis function cutoff            BFCut       ...    1.0000e-11
Integration weight cutoff        WCut        ...    1.0000e-14
Grids for H and He will be reduced by one unit

# of grid points (after initial pruning)     ... 107908 (   0.0 sec)
# of grid points (after weights+screening)   ...  97557 (   0.4 sec)
nearest neighbour list constructed           ...    0.0 sec
Grid point re-assignment to atoms done       ...    0.0 sec
Grid point division into batches done        ...    0.3 sec
Reduced shell lists constructed in    1.4 sec

Total number of grid points                  ...    97557
Total number of batches                      ...     1534
Average number of points per batch           ...       63
Average number of grid points per atom       ...     4646
Average number of shells per batch           ...    45.53 (56.21%)
Average number of basis functions per batch  ...    80.90 (60.83%)
Average number of large shells per batch     ...    31.89 (70.05%)
Average number of large basis fcns per batch ...    58.00 (71.69%)
Maximum spatial batch extension              ...  16.58, 18.87, 21.18 au
Average spatial batch extension              ...   2.26,  2.38,  2.58 au

Final grid set up in    1.9 sec
Final integration                            ... done (   1.1 sec)
Change in XC energy                          ...     0.000081798
Integrated number of electrons               ...    93.999976793
Previous integrated no of electrons          ...    94.002540236
Total Energy       :         -648.14508826 Eh          -17636.92450 eV
  Last Energy change         ...   -4.0897e-09  Tolerance :   1.0000e-08
  Last MAX-Density change    ...    5.0437e-06  Tolerance :   1.0000e-07
             **** THE GBW FILE WAS UPDATED (b3lyp.gbw) ****
             **** DENSITY FILE WAS UPDATED (b3lyp.scfp.tmp) ****
             **** ENERGY FILE WAS UPDATED (b3lyp.en.tmp) ****
Total SCF time: 0 days 0 hours 1 min 1 sec 

-------------------------   --------------------
FINAL SINGLE POINT ENERGY      -648.145088257780
-------------------------   --------------------

------------------------------------------------------------------------------
                         ORCA SCF GRADIENT CALCULATION
------------------------------------------------------------------------------

Gradient of the Kohn-Sham DFT energy:
Kohn-Sham wavefunction type      ... RKS
Hartree-Fock exchange scaling    ...    0.200
Number of operators              ...    1
Number of atoms                  ...   21
Basis set dimensions             ...  133
Integral neglect threshold       ... 2.5e-11
Integral primitive cutoff        ... 2.5e-12

Nuclear repulsion gradient       ... done
One Electron Gradient            ... done
Pre-screening matrix             ... done
Starting the two electron gradient:
Two electron gradient done
Exchange-correlation gradient    ... done

------------------
CARTESIAN GRADIENT
------------------

   1   C   :   -0.004956429   -0.003958552    0.000505254
   2   C   :   -0.000334117   -0.000171081    0.000032326
   3   C   :   -0.000202627    0.001766394   -0.000744759
   4   C   :   -0.000210039   -0.000172123    0.000468413
   5   C   :   -0.000955815   -0.000866162   -0.002948788
   6   C   :    0.003227049    0.005717896   -0.001450985
   7   C   :   -0.000997671   -0.002939647    0.004557197
   8   O   :   -0.002861541    0.003993618   -0.000337068
   9   O   :   -0.005704118   -0.000037092    0.002183150
  10   O   :    0.003415643    0.006630404   -0.001029205
  11   C   :   -0.004313572   -0.009626133   -0.000455951
  12   C   :    0.013489612    0.002599845   -0.000094329
  13   O   :   -0.005925452   -0.003130321   -0.006230105
  14   H   :    0.002787498   -0.003291619    0.001291587
  15   H   :    0.002964349    0.001636774    0.000067087
  16   H   :    0.001838489    0.001141557   -0.000350279
  17   H   :    0.000122725    0.000184696   -0.000018866
  18   H   :    0.000578210   -0.000160797    0.000102666
  19   H   :   -0.000741841   -0.000721285    0.002505196
  20   H   :   -0.001360215   -0.000395379   -0.000212109
  21   H   :    0.000139862    0.001799007    0.002159568

Norm of the cartesian gradient     ...    0.026212417
RMS gradient                       ...    0.003302454
MAX gradient                       ...    0.013489612

-------
TIMINGS
-------

Total SCF gradient time            ...       20.430 sec

One electron gradient       ....       0.223 sec  (  1.1%)
Prescreening matrices       ....       0.056 sec  (  0.3%)
Two electron gradient       ....      12.416 sec  ( 60.8%)
XC gradient                 ....       7.640 sec  ( 37.4%)
------------------------------------------------------------------------------
                         ORCA GEOMETRY RELAXATION STEP
------------------------------------------------------------------------------

Reading the OPT-File                    .... done
Getting information on internals        .... done
Copying old internal coords+grads       .... done
Making the new internal coordinates     .... (new redundants).... done
Validating the new internal coordinates .... (new redundants).... done
Calculating the B-matrix                .... done
Calculating the G,G- and P matrices     .... done
Transforming gradient to internals      .... done
Projecting the internal gradient        .... done
Number of atoms                         ....  21
Number of internal coordinates          ....  93
Current Energy                          ....  -648.145088258 Eh
Current gradient norm                   ....     0.026212417 Eh/bohr
Maximum allowed component of the step   ....  0.300
Current trust radius                    ....  0.300
Updating the Hessian (BFGS)             .... done
Forming the augmented Hessian           .... done
Diagonalizing the augmented Hessian     .... done
Last element of RFO vector              ....  0.984135662
Lowest eigenvalues of augmented Hessian:
 -0.001784993  0.012935362  0.013321399  0.015524707  0.019606732
Length of the computed step             ....  0.180277565
The final length of the internal step   ....  0.180277565
Converting the step to cartesian space:
 Initial RMS(Int)=    0.0186939126
Transforming coordinates:
 Iter   0:  RMS(Cart)=    0.0612543351 RMS(Int)=    1.2974248734
 Iter   1:  RMS(Cart)=    0.0022822710 RMS(Int)=    0.0010502853
 Iter   2:  RMS(Cart)=    0.0001473350 RMS(Int)=    0.0000691695
 Iter   3:  RMS(Cart)=    0.0000132436 RMS(Int)=    0.0000063640
 Iter   4:  RMS(Cart)=    0.0000008701 RMS(Int)=    0.0000004881
 Iter   5:  RMS(Cart)=    0.0000000793 RMS(Int)=    0.0000000440
done
Storing new coordinates                 .... done

                                .--------------------.
          ----------------------|Geometry convergence|---------------------
          Item                value                 Tolerance   Converged
          -----------------------------------------------------------------
          Energy change      -0.00778907            0.00000500      NO
          RMS gradient        0.00204628            0.00010000      NO
          MAX gradient        0.00874477            0.00030000      NO
[...]
Integrated number of electrons               ...    93.999984594
Previous integrated no of electrons          ...    94.003960601

----------------
TOTAL SCF ENERGY
----------------

Total Energy       :         -648.14645150 Eh          -17636.96159 eV

Components:
Nuclear Repulsion  :          778.51459082 Eh           21184.45901 eV
Electronic Energy  :        -1426.66104231 Eh          -38821.42060 eV

One Electron Energy:        -2428.33326430 Eh          -66078.30748 eV
Two Electron Energy:         1001.67222198 Eh           27256.88687 eV

Virial components:
Potential Energy   :        -1292.97486478 Eh          -35183.63477 eV
Kinetic Energy     :          644.82841328 Eh           17546.67318 eV
Virial Ratio       :            2.00514561


DFT components:
N(Alpha)           :       46.999992296957 electrons
N(Beta)            :       46.999992296957 electrons
N(Total)           :       93.999984593913 electrons
E(X)               :      -65.492845672514 Eh       
E(C)               :       -3.828359494578 Eh       
E(XC)              :      -69.321205167091 Eh       

---------------
SCF CONVERGENCE
---------------

  Last Energy change         ...   -9.9756e-09  Tolerance :   1.0000e-08
  Last MAX-Density change    ...    1.1348e-05  Tolerance :   1.0000e-07
  Last RMS-Density change    ...    3.8912e-07  Tolerance :   5.0000e-09
  Last Orbital Gradient      ...    1.9190e-06  Tolerance :   1.0000e-05
  Last Orbital Rotation      ...    6.4283e-06  Tolerance :   1.0000e-05

             **** THE GBW FILE WAS UPDATED (b3lyp.gbw) ****
             **** DENSITY FILE WAS UPDATED (b3lyp.scfp.tmp) ****
             **** ENERGY FILE WAS UPDATED (b3lyp.en.tmp) ****
----------------
ORBITAL ENERGIES
----------------

  NO   OCC          E(Eh)            E(eV) 
   0   2.0000     -19.198017      -522.4046 
   1   2.0000     -19.195552      -522.3375 
   2   2.0000     -19.148179      -521.0484 
   3   2.0000     -19.147191      -521.0215 
   4   2.0000     -10.337557      -281.2992 
   5   2.0000     -10.333712      -281.1946 
   6   2.0000     -10.272461      -279.5279 
   7   2.0000     -10.222161      -278.1591 
   8   2.0000     -10.210092      -277.8307 
   9   2.0000     -10.206079      -277.7215 
  10   2.0000     -10.204124      -277.6683 
  11   2.0000     -10.201880      -277.6073 
  12   2.0000     -10.195039      -277.4211 
  13   2.0000      -1.119588       -30.4655 
  14   2.0000      -1.110287       -30.2124 
  15   2.0000      -1.036502       -28.2047 
  16   2.0000      -1.026668       -27.9370 
  17   2.0000      -0.878558       -23.9068 
  18   2.0000      -0.788445       -21.4547 
  19   2.0000      -0.782574       -21.2949 
  20   2.0000      -0.747763       -20.3477 
  21   2.0000      -0.680176       -18.5085 
  22   2.0000      -0.643526       -17.5112 
  23   2.0000      -0.610339       -16.6082 
  24   2.0000      -0.587853       -15.9963 
  25   2.0000      -0.528438       -14.3795 
  26   2.0000      -0.506521       -13.7831 
  27   2.0000      -0.495426       -13.4812 
  28   2.0000      -0.482825       -13.1383 
  29   2.0000      -0.469566       -12.7775 
  30   2.0000      -0.467512       -12.7217 
  31   2.0000      -0.456756       -12.4290 
  32   2.0000      -0.449892       -12.2422 
  33   2.0000      -0.446705       -12.1555 
  34   2.0000      -0.414846       -11.2885 
  35   2.0000      -0.405446       -11.0328 
  36   2.0000      -0.400432       -10.8963 
  37   2.0000      -0.389830       -10.6078 
  38   2.0000      -0.380134       -10.3440 
  39   2.0000      -0.365676        -9.9506 
  40   2.0000      -0.360341        -9.8054 
  41   2.0000      -0.321737        -8.7549 
  42   2.0000      -0.310823        -8.4579 
  43   2.0000      -0.285104        -7.7581 
  44   2.0000      -0.281322        -7.6552 
  45   2.0000      -0.269751        -7.3403 
  46   2.0000      -0.257065        -6.9951 
  47   0.0000      -0.061045        -1.6611 
  48   0.0000      -0.016846        -0.4584 
  49   0.0000      -0.001610        -0.0438 
  50   0.0000       0.042445         1.1550 
  51   0.0000       0.062292         1.6951 
  52   0.0000       0.087785         2.3888 
  53   0.0000       0.114326         3.1110 
  54   0.0000       0.131726         3.5845 
  55   0.0000       0.143747         3.9115 
  56   0.0000       0.154157         4.1948 
  57   0.0000       0.161729         4.4009 
  58   0.0000       0.170334         4.6350 
  59   0.0000       0.175864         4.7855 
  60   0.0000       0.186616         5.0781 
  61   0.0000       0.217359         5.9146 
  62   0.0000       0.230850         6.2818 
  63   0.0000       0.243819         6.6346 
  64   0.0000       0.271947         7.4001 
  65   0.0000       0.283465         7.7135 
  66   0.0000       0.314879         8.5683 
  67   0.0000       0.318208         8.6589 
  68   0.0000       0.340155         9.2561 
  69   0.0000       0.362428         9.8622 
  70   0.0000       0.397334        10.8120 
  71   0.0000       0.495181        13.4746 
  72   0.0000       0.501840        13.6558 
  73   0.0000       0.514897        14.0111 
  74   0.0000       0.536070        14.5872 
  75   0.0000       0.537737        14.6326 
  76   0.0000       0.545597        14.8465 
  77   0.0000       0.567954        15.4548 
  78   0.0000       0.576927        15.6990 
  79   0.0000       0.585203        15.9242 
  80   0.0000       0.589883        16.0515 
  81   0.0000       0.603112        16.4115 
  82   0.0000       0.621308        16.9066 
  83   0.0000       0.624245        16.9866 
  84   0.0000       0.632631        17.2148 
  85   0.0000       0.637557        17.3488 
  86   0.0000       0.647029        17.6065 
  87   0.0000       0.651793        17.7362 
  88   0.0000       0.665011        18.0959 
  89   0.0000       0.677109        18.4251 
  90   0.0000       0.691151        18.8072 
  91   0.0000       0.717581        19.5264 
  92   0.0000       0.751814        20.4579 
  93   0.0000       0.783318        21.3152 
  94   0.0000       0.813511        22.1368 
  95   0.0000       0.816426        22.2161 
  96   0.0000       0.829645        22.5758 
  97   0.0000       0.857637        23.3375 
  98   0.0000       0.863574        23.4990 
  99   0.0000       0.877320        23.8731 
 100   0.0000       0.886680        24.1278 
 101   0.0000       0.906839        24.6763 
 102   0.0000       0.922913        25.1137 
 103   0.0000       0.935263        25.4498 
 104   0.0000       0.951024        25.8787 
 105   0.0000       0.956801        26.0359 
 106   0.0000       0.964748        26.2521 
 107   0.0000       0.987079        26.8598 
 108   0.0000       0.990172        26.9440 
 109   0.0000       1.018571        27.7167 
 110   0.0000       1.036004        28.1911 
 111   0.0000       1.040358        28.3096 
 112   0.0000       1.054203        28.6863 
 113   0.0000       1.093208        29.7477 
 114   0.0000       1.114103        30.3163 
 115   0.0000       1.122799        30.5529 
 116   0.0000       1.160017        31.5657 
 117   0.0000       1.162766        31.6405 
 118   0.0000       1.204396        32.7733 
 119   0.0000       1.210624        32.9427 
 120   0.0000       1.263697        34.3870 
 121   0.0000       1.295610        35.2553 
 122   0.0000       1.327885        36.1336 
 123   0.0000       1.424819        38.7713 
 124   0.0000       1.448643        39.4196 
 125   0.0000       1.487332        40.4724 
 126   0.0000       1.507569        41.0230 
 127   0.0000       1.587628        43.2016 
 128   0.0000       1.780261        48.4434 
 129   0.0000       1.829367        49.7796 
 130   0.0000       1.911687        52.0196 
 131   0.0000       2.066115        56.2218 
 132   0.0000       2.107253        57.3413 

                    ********************************
                    * MULLIKEN POPULATION ANALYSIS *
                    ********************************

-----------------------
MULLIKEN ATOMIC CHARGES
-----------------------
   0 C :   -0.160305
   1 C :   -0.114682
   2 C :   -0.116121
   3 C :   -0.118111
   4 C :   -0.456748
   5 C :    0.117991
   6 C :    0.258997
   7 O :   -0.408147
   8 O :   -0.397956
   9 O :   -0.568001
  10 C :    0.435643
  11 C :    0.533487
  12 O :   -0.552157
  13 H :    0.390976
  14 H :    0.178620
  15 H :    0.147454
  16 H :    0.144189
  17 H :    0.142663
  18 H :    0.189697
  19 H :    0.174266
  20 H :    0.178245
Sum of atomic charges:   -0.0000000

--------------------------------
MULLIKEN REDUCED ORBITAL CHARGES
--------------------------------
  0 C s       :     3.230511  s :     3.230511
      pz      :     0.951786  p :     2.929795
      px      :     0.965787
      py      :     1.012221
  1 C s       :     3.199242  s :     3.199242
      pz      :     1.015913  p :     2.915440
      px      :     0.931238
      py      :     0.968288
  2 C s       :     3.195356  s :     3.195356
      pz      :     0.992099  p :     2.920765
      px      :     1.010226
      py      :     0.918440
  3 C s       :     3.208903  s :     3.208903
      pz      :     0.962095  p :     2.909208
      px      :     0.953245
      py      :     0.993868
  4 C s       :     3.339301  s :     3.339301
      pz      :     1.076726  p :     3.117447
      px      :     0.936811
      py      :     1.103910
  5 C s       :     3.138868  s :     3.138868
      pz      :     1.034034  p :     2.743141
      px      :     0.870163
      py      :     0.838944
  6 C s       :     3.140377  s :     3.140377
      pz      :     0.977707  p :     2.600625
      px      :     0.622278
      py      :     1.000639
  7 O s       :     3.944514  s :     3.944514
      pz      :     1.400889  p :     4.463633
      px      :     1.630323
      py      :     1.432421
  8 O s       :     3.954217  s :     3.954217
      pz      :     1.335543  p :     4.443739
      px      :     1.719788
      py      :     1.388408
  9 O s       :     3.918968  s :     3.918968
      pz      :     1.779818  p :     4.649032
      px      :     1.375589
      py      :     1.493626
 10 C s       :     2.974239  s :     2.974239
      pz      :     0.849209  p :     2.590117
      px      :     0.757567
      py      :     0.983342
 11 C s       :     3.015262  s :     3.015262
      pz      :     0.731350  p :     2.451251
      px      :     0.905254
      py      :     0.814647
 12 O s       :     3.935956  s :     3.935956
      pz      :     1.581084  p :     4.616201
      px      :     1.261680
      py      :     1.773437
 13 H s       :     0.609024  s :     0.609024
 14 H s       :     0.821380  s :     0.821380
 15 H s       :     0.852546  s :     0.852546
 16 H s       :     0.855811  s :     0.855811
 17 H s       :     0.857337  s :     0.857337
 18 H s       :     0.810303  s :     0.810303
 19 H s       :     0.825734  s :     0.825734
 20 H s       :     0.821755  s :     0.821755


                     *******************************
                     * LOEWDIN POPULATION ANALYSIS *
                     *******************************

----------------------
LOEWDIN ATOMIC CHARGES
----------------------
   0 C :   -0.070286
   1 C :   -0.123501
   2 C :   -0.116345
   3 C :   -0.084696
   4 C :   -0.342287
   5 C :   -0.085527
   6 C :    0.145989
   7 O :   -0.292842
   8 O :   -0.264311
   9 O :   -0.332510
  10 C :    0.258205
  11 C :    0.277725
  12 O :   -0.235480
  13 H :    0.307731
  14 H :    0.144309
  15 H :    0.134296
  16 H :    0.126198
  17 H :    0.125931
  18 H :    0.148661
  19 H :    0.136358
  20 H :    0.142383

-------------------------------
LOEWDIN REDUCED ORBITAL CHARGES
-------------------------------
  0 C s       :     2.944574  s :     2.944574
      pz      :     0.967226  p :     3.125712
      px      :     1.064146
      py      :     1.094340
  1 C s       :     2.945387  s :     2.945387
      pz      :     1.026480  p :     3.178114
      px      :     1.081752
      py      :     1.069882
  2 C s       :     2.940220  s :     2.940220
      pz      :     1.011870  p :     3.176125
      px      :     1.097220
      py      :     1.067035
  3 C s       :     2.945708  s :     2.945708
      pz      :     0.976429  p :     3.138988
      px      :     1.080597
      py      :     1.081963
  4 C s       :     2.995255  s :     2.995255
      pz      :     1.137832  p :     3.347032
      px      :     1.060827
      py      :     1.148373
  5 C s       :     2.914987  s :     2.914987
      pz      :     1.053910  p :     3.170540
      px      :     1.076439
      py      :     1.040191
  6 C s       :     2.898572  s :     2.898572
      pz      :     1.000731  p :     2.955439
      px      :     0.862317
      py      :     1.092391
  7 O s       :     3.641083  s :     3.641083
      pz      :     1.426071  p :     4.651759
      px      :     1.706020
      py      :     1.519668
  8 O s       :     3.635871  s :     3.635871
      pz      :     1.454157  p :     4.628440
      px      :     1.778463
      py      :     1.395820
  9 O s       :     3.591399  s :     3.591399
      pz      :     1.783300  p :     4.741111
      px      :     1.425634
      py      :     1.532177
 10 C s       :     2.901029  s :     2.901029
      pz      :     0.874356  p :     2.840766
      px      :     0.920191
      py      :     1.046219
 11 C s       :     2.918856  s :     2.918856
      pz      :     0.982568  p :     2.803419
      px      :     0.999758
      py      :     0.821094
 12 O s       :     3.542063  s :     3.542063
      pz      :     1.619324  p :     4.693417
      px      :     1.293759
      py      :     1.780333
 13 H s       :     0.692269  s :     0.692269
 14 H s       :     0.855691  s :     0.855691
 15 H s       :     0.865704  s :     0.865704
 16 H s       :     0.873802  s :     0.873802
 17 H s       :     0.874069  s :     0.874069
 18 H s       :     0.851339  s :     0.851339
 19 H s       :     0.863642  s :     0.863642
 20 H s       :     0.857617  s :     0.857617


                      *****************************
                      * MAYER POPULATION ANALYSIS *
                      *****************************

  NA   - Mulliken gross atomic population
  ZA   - Total nuclear charge
  QA   - Mulliken gross atomic charge
  VA   - Mayer's total valence
  BVA  - Mayer's bonded valence
  FA   - Mayer's free valence

  ATOM       NA         ZA         QA         VA         BVA        FA
  0 C      6.1603     6.0000    -0.1603     3.8924     3.8924     0.0000
  1 C      6.1147     6.0000    -0.1147     3.8654     3.8654     0.0000
  2 C      6.1161     6.0000    -0.1161     3.8617     3.8617     0.0000
  3 C      6.1181     6.0000    -0.1181     3.8860     3.8860     0.0000
  4 C      6.4567     6.0000    -0.4567     3.7289     3.7289    -0.0000
  5 C      5.8820     6.0000     0.1180     3.6884     3.6884     0.0000
  6 C      5.7410     6.0000     0.2590     3.7693     3.7693    -0.0000
  7 O      8.4081     8.0000    -0.4081     2.0427     2.0427     0.0000
  8 O      8.3980     8.0000    -0.3980     2.0474     2.0474    -0.0000
  9 O      8.5680     8.0000    -0.5680     1.8145     1.8145     0.0000
 10 C      5.5644     6.0000     0.4356     3.8502     3.8502    -0.0000
 11 C      5.4665     6.0000     0.5335     3.7884     3.7884    -0.0000
 12 O      8.5522     8.0000    -0.5522     1.7764     1.7764    -0.0000
 13 H      0.6090     1.0000     0.3910     0.8324     0.8324     0.0000
 14 H      0.8214     1.0000     0.1786     0.9437     0.9437    -0.0000
 15 H      0.8525     1.0000     0.1475     0.9435     0.9435    -0.0000
 16 H      0.8558     1.0000     0.1442     0.9414     0.9414     0.0000
 17 H      0.8573     1.0000     0.1427     0.9411     0.9411     0.0000
 18 H      0.8103     1.0000     0.1897     0.9321     0.9321    -0.0000
 19 H      0.8257     1.0000     0.1743     0.9359     0.9359    -0.0000
 20 H      0.8218     1.0000     0.1782     0.9328     0.9328    -0.0000

  Mayer bond orders larger than 0.1
B(  0-C ,  2-C ) :   1.4414 B(  0-C ,  5-C ) :   1.3675 B(  0-C , 14-H ) :   0.9101 
B(  1-C ,  3-C ) :   1.4307 B(  1-C ,  6-C ) :   1.4190 B(  1-C , 15-H ) :   0.9216 
B(  2-C ,  3-C ) :   1.4167 B(  2-C , 16-H ) :   0.9307 B(  3-C , 17-H ) :   0.9284 
B(  4-C , 11-C ) :   0.9467 B(  4-C , 18-H ) :   0.9270 B(  4-C , 19-H ) :   0.9418 
B(  4-C , 20-H ) :   0.9297 B(  5-C ,  6-C ) :   1.3116 B(  5-C , 10-C ) :   0.9402 
B(  6-C , 12-O ) :   0.8251 B(  7-O , 10-C ) :   1.8612 B(  8-O , 11-C ) :   1.9224 
B(  9-O , 10-C ) :   0.9671 B(  9-O , 13-H ) :   0.7736 B( 11-C , 12-O ) :   0.8639 


-------
TIMINGS
-------

Total SCF time: 0 days 0 hours 0 min 29 sec 

Total time                  ....      29.955 sec
Sum of individual times     ....      29.954 sec  (100.0%)

Fock matrix formation       ....      27.643 sec  ( 92.3%)
  Coulomb formation         ....      24.602 sec  ( 89.0% of F)
  XC integration            ....       3.038 sec  ( 11.0% of F)
    Basis function eval.    ....       1.580 sec  ( 52.0% of XC)
    Density eval.           ....       0.493 sec  ( 16.2% of XC)
    XC-Functional eval.     ....       0.278 sec  (  9.2% of XC)
    XC-Potential eval.      ....       0.625 sec  ( 20.6% of XC)
Diagonalization             ....       0.006 sec  (  0.0%)
Density matrix formation    ....       0.003 sec  (  0.0%)
Population analysis         ....       0.008 sec  (  0.0%)
Initial guess               ....       0.011 sec  (  0.0%)
Orbital Transformation      ....       0.000 sec  (  0.0%)
Orbital Orthonormalization  ....       0.010 sec  (  0.0%)
DIIS solution               ....       0.001 sec  (  0.0%)
SOSCF solution              ....       0.011 sec  (  0.0%)
Grid generation             ....       2.273 sec  (  7.6%)

-------------------------   --------------------
FINAL SINGLE POINT ENERGY      -648.146451495738
-------------------------   --------------------

                                *** OPTIMIZATION RUN DONE ***

                            ***************************************
                            *     ORCA property calculations      *
                            ***************************************

                                    ---------------------
                                    Active property flags
                                    ---------------------
   (+) Dipole Moment


------------------------------------------------------------------------------
                       ORCA ELECTRIC PROPERTIES CALCULATION
------------------------------------------------------------------------------

Dipole Moment Calculation                       ... on
Quadrupole Moment Calculation                   ... off
Polarizability Calculation                      ... off
GBWName                                         ... b3lyp.gbw
Electron density file                           ... b3lyp.scfp.tmp

-------------
DIPOLE MOMENT
-------------
                                X             Y             Z
Electronic contribution:      2.27405      -3.07779       1.47575
Nuclear contribution   :     -2.51463       3.61228      -2.37480
                        -----------------------------------------
Total Dipole Moment    :     -0.24058       0.53449      -0.89905
                        -----------------------------------------
Magnitude (a.u.)       :      1.07324
Magnitude (Debye)      :      2.72796


Timings for individual modules:

Sum of individual times         ...      853.556 sec (=  14.226 min)
GTO integral calculation        ...        2.659 sec (=   0.044 min)   0.3 %
SCF iterations                  ...      605.619 sec (=  10.094 min)  71.0 %
SCF Gradient evaluation         ...      244.488 sec (=   4.075 min)  28.6 %
Geometry relaxation             ...        0.790 sec (=   0.013 min)   0.1 %
                             ****ORCA TERMINATED NORMALLY****
TOTAL RUN TIME: 0 days 0 hours 14 minutes 14 seconds 333 msec
