

     ************************************************************************
     *************** Dalton - An Electronic Structure Program ***************
     ************************************************************************

    This is output from DALTON (Release Dalton2013 patch 0)
   ----------------------------------------------------------------------------
    NOTE:
     
    Dalton is an experimental code for the evaluation of molecular
    properties using (MC)SCF, DFT, CI, and CC wave functions.
    The authors accept no responsibility for the performance of
    the code or for the correctness of the results.
     
    The code (in whole or part) is provided under a licence and
    is not to be reproduced for further distribution without
    the written permission of the authors or their representatives.
     
    See the home page "http://daltonprogram.org" for further information.
     
    If results obtained with this code are published,
    the appropriate citations would be both of:
     
       K. Aidas, C. Angeli, K. L. Bak, V. Bakken, R. Bast,
       L. Boman, O. Christiansen, R. Cimiraglia, S. Coriani,
       P. Dahle, E. K. Dalskov, U. Ekstroem, T. Enevoldsen,
       J. J. Eriksen, P. Ettenhuber, B. Fernandez, L. Ferrighi,
       H. Fliegl, L. Frediani, K. Hald, A. Halkier, C. Haettig,
       H. Heiberg, T. Helgaker, A. C. Hennum, H. Hettema,
       E. Hjertenaes, S. Hoest, I.-M. Hoeyvik, M. F. Iozzi,
       B. Jansik, H. J. Aa. Jensen, D. Jonsson, P. Joergensen,
       J. Kauczor, S. Kirpekar, T. Kjaergaard, W. Klopper,
       S. Knecht, R. Kobayashi, H. Koch, J. Kongsted, A. Krapp,
       K. Kristensen, A. Ligabue, O. B. Lutnaes, J. I. Melo,
       K. V. Mikkelsen, R. H. Myhre, C. Neiss, C. B. Nielsen,
       P. Norman, J. Olsen, J. M. H. Olsen, A. Osted,
       M. J. Packer, F. Pawlowski, T. B. Pedersen, P. F. Provasi,
       S. Reine, Z. Rinkevicius, T. A. Ruden, K. Ruud, V. Rybkin,
       P. Salek, C. C. M. Samson, A. Sanchez de Meras, T. Saue,
       S. P. A. Sauer, B. Schimmelpfennig, K. Sneskov,
       A. H. Steindal, K. O. Sylvester-Hvid, P. R. Taylor,
       A. M. Teale, E. I. Tellgren, D. P. Tew, A. J. Thorvaldsen,
       L. Thoegersen, O. Vahtras, M. A. Watson, D. J. D. Wilson,
       M. Ziolkowski and H. Aagren,
       "The Dalton quantum chemistry program system",
       WIREs Comput. Mol. Sci. 2013. (doi: 10.1002/wcms.1172)
    
    and
    
       Dalton, a Molecular Electronic Structure Program,
       Release DALTON2013.0 (2013), see http://daltonprogram.org
   ----------------------------------------------------------------------------

    Authors in alphabetical order (major contribution(s) in parenthesis):

  Kestutis Aidas,           Vilnius University,           Lithuania   (QM/MM)
  Celestino Angeli,         University of Ferrara,        Italy       (NEVPT2)
  Keld L. Bak,              UNI-C,                        Denmark     (AOSOPPA, non-adiabatic coupling, magnetic properties)
  Vebjoern Bakken,          University of Oslo,           Norway      (DALTON; geometry optimizer, symmetry detection)
  Radovan Bast,             KTH Stockholm,                Sweden      (DALTON installation and execution frameworks)
  Linus Boman,              NTNU,                         Norway      (Cholesky decomposition and subsystems)
  Ove Christiansen,         Aarhus University,            Denmark     (CC module)
  Renzo Cimiraglia,         University of Ferrara,        Italy       (NEVPT2)
  Sonia Coriani,            University of Trieste,        Italy       (CC module, MCD in RESPONS)
  Paal Dahle,               University of Oslo,           Norway      (Parallelization)
  Erik K. Dalskov,          UNI-C,                        Denmark     (SOPPA)
  Thomas Enevoldsen,        Univ. of Southern Denmark,    Denmark     (SOPPA)
  Janus J. Eriksen,         Aarhus University,            Denmark     (PE-MP2/SOPPA, TDA)
  Berta Fernandez,          U. of Santiago de Compostela, Spain       (doublet spin, ESR in RESPONS)
  Lara Ferrighi,            Aarhus University,            Denmark     (PCM Cubic response)
  Heike Fliegl,             University of Oslo,           Norway      (CCSD(R12))
  Luca Frediani,            UiT The Arctic U. of Norway,  Norway      (PCM)
  Bin Gao,                  UiT The Arctic U. of Norway,  Norway      (Gen1Int library)
  Christof Haettig,         Ruhr-University Bochum,       Germany     (CC module)
  Kasper Hald,              Aarhus University,            Denmark     (CC module)
  Asger Halkier,            Aarhus University,            Denmark     (CC module)
  Hanne Heiberg,            University of Oslo,           Norway      (geometry analysis, selected one-electron integrals)
  Trygve Helgaker,          University of Oslo,           Norway      (DALTON; ABACUS, ERI, DFT modules, London, and much more)
  Alf Christian Hennum,     University of Oslo,           Norway      (Parity violation)
  Hinne Hettema,            University of Auckland,       New Zealand (quadratic response in RESPONS; SIRIUS supersymmetry)
  Eirik Hjertenaes,         NTNU,                         Norway      (Cholesky decomposition)
  Maria Francesca Iozzi,    University of Oslo,           Norway      (RPA)
  Brano Jansik              Technical Univ. of Ostrava    Czech Rep.  (DFT cubic response)
  Hans Joergen Aa. Jensen,  Univ. of Southern Denmark,    Denmark     (DALTON; SIRIUS, RESPONS, ABACUS modules, London, and much more)
  Dan Jonsson,              UiT The Arctic U. of Norway,  Norway      (cubic response in RESPONS module)
  Poul Joergensen,          Aarhus University,            Denmark     (RESPONS, ABACUS, and CC modules)
  Joanna Kauczor,           Linkoeping University,        Sweden      (Complex polarization propagator (CPP) module)
  Sheela Kirpekar,          Univ. of Southern Denmark,    Denmark     (Mass-velocity & Darwin integrals)
  Wim Klopper,              KIT Karlsruhe,                Germany     (R12 code in CC, SIRIUS, and ABACUS modules)
  Stefan Knecht,            ETH Zurich,                   Switzerland (Parallel CI and MCSCF)
  Rika Kobayashi,           Australian National Univ.,    Australia   (DIIS in CC, London in MCSCF)
  Henrik Koch,              NTNU,                         Norway      (CC module, Cholesky decomposition)
  Jacob Kongsted,           Univ. of Southern Denmark,    Denmark     (Polarizable embedding, QM/MM)
  Andrea Ligabue,           University of Modena,         Italy       (CTOCD, AOSOPPA)
  Ola B. Lutnaes,           University of Oslo,           Norway      (DFT Hessian)
  Juan I. Melo,             University of Buenos Aires,   Argentina   (LRESC, Relativistic Effects on NMR Shieldings)
  Kurt V. Mikkelsen,        University of Copenhagen,     Denmark     (MC-SCRF and QM/MM)
  Rolf H. Myhre,            NTNU,                         Norway      (Cholesky, subsystems and ECC2)
  Christian Neiss,          Univ. Erlangen-Nuernberg,     Germany     (CCSD(R12))
  Christian B. Nielsen,     University of Copenhagen,     Denmark     (QM/MM)
  Patrick Norman,           Linkoeping University,        Sweden      (Cubic response and complex response in RESPONS)
  Jeppe Olsen,              Aarhus University,            Denmark     (SIRIUS CI/density modules)
  Jogvan Magnus H. Olsen,   Univ. of Southern Denmark,    Denmark     (Polarizable embedding, PE library, QM/MM)
  Anders Osted,             Copenhagen University,        Denmark     (QM/MM)
  Martin J. Packer,         University of Sheffield,      UK          (SOPPA)
  Filip Pawlowski,          Kazimierz Wielki University,  Poland      (CC3)
  Thomas B. Pedersen,       University of Oslo,           Norway      (Cholesky decomposition)
  Patricio F. Provasi,      University of Northeastern,   Argentina   (Analysis of coupling constants in localized orbitals)
  Zilvinas Rinkevicius,     KTH Stockholm,                Sweden      (open-shell DFT, ESR)
  Elias Rudberg,            KTH Stockholm,                Sweden      (DFT grid and basis info)
  Torgeir A. Ruden,         University of Oslo,           Norway      (Numerical derivatives in ABACUS)
  Kenneth Ruud,             UiT The Arctic U. of Norway,  Norway      (DALTON; ABACUS magnetic properties and  much more)
  Pawel Salek,              KTH Stockholm,                Sweden      (DALTON; DFT code)
  Claire C. M. Samson       University of Karlsruhe       Germany     (Boys localization, r12 integrals in ERI)
  Alfredo Sanchez de Meras, University of Valencia,       Spain       (CC module, Cholesky decomposition)
  Trond Saue,               Paul Sabatier University,     France      (direct Fock matrix construction)
  Stephan P. A. Sauer,      University of Copenhagen,     Denmark     (SOPPA(CCSD), SOPPA prop., AOSOPPA, vibrational g-factors)
  Bernd Schimmelpfennig,    Forschungszentrum Karlsruhe,  Germany     (AMFI module)
  Kristian Sneskov,         Aarhus University,            Denmark     (QM/MM, PE-CC)
  Arnfinn H. Steindal,      UiT The Arctic U. of Norway,  Norway      (parallel QM/MM)
  K. O. Sylvester-Hvid,     University of Copenhagen,     Denmark     (MC-SCRF)
  Peter R. Taylor,          VLSCI/Univ. of Melbourne,     Australia   (Symmetry handling ABACUS, integral transformation)
  Andrew M. Teale,          University of Nottingham,     England     (DFT-AC, DFT-D)
  David P. Tew,             University of Bristol,        England     (CCSD(R12))
  Olav Vahtras,             KTH Stockholm,                Sweden      (triplet response, spin-orbit, ESR, TDDFT, open-shell DFT)
  David J. Wilson,          La Trobe University,          Australia   (DFT Hessian and DFT magnetizabilities)
  Hans Agren,               KTH Stockholm,                Sweden      (SIRIUS module, RESPONS, MC-SCRF solvation model)
 --------------------------------------------------------------------------------

     Date and time (Linux)  : Sat Jan 11 16:27:57 2014
     Host name              : gold                                    

 * Work memory size             :    64000000 =  488.28 megabytes.

 * Directories for basis set searches:
   1) /home/eric/repos/forks/qmspeedtest/berky/dalton/2013.0/b3lyp
   2) /home/eric/opt/apps/dalton/2013/build/basis


Compilation information
-----------------------

 Who compiled             | eric
 Host                     | gold
 System                   | Linux-3.11.0-13-generic
 CMake generator          | Unix Makefiles
 Processor                | x86_64
 64-bit integers          | OFF
 MPI                      | OFF
 Fortran compiler         | /home/eric/opt/apps/intel/2013_sp1_update1/compose
                          | r_xe_2013_sp1.1.106/bin/intel64/ifort
 Fortran compiler version | ifort (IFORT) 14.0.1 20131008
 C compiler               | /home/eric/opt/apps/intel/2013_sp1_update1/compose
                          | r_xe_2013_sp1.1.106/bin/intel64/icc
 C compiler version       | icc (ICC) 14.0.1 20131008
 C++ compiler             | /home/eric/opt/apps/intel/2013_sp1_update1/compose
                          | r_xe_2013_sp1.1.106/bin/intel64/icpc
 C++ compiler version     | icpc (ICC) 14.0.1 20131008
 Static linking           | OFF
 Last Git revision        | 575a5cf6d2c5c3776735f11fa026dbfca0382455
 Configuration time       | 2013-11-19 15:01:21.168702


   Content of the .dal input file
 ----------------------------------

BASIS                                             
6-31G                                             
 Title                                            
 Generated by the Dalton Input File Plugin for Avo
Atomtypes=5 Angstrom                              
Charge=6.0 Atoms=7                                
C          2.05639       -0.16543        0.39727  
C          0.68890        2.02854       -0.64816  
C          2.74071        1.02327        0.12533  
C          2.05734        2.11782       -0.40016  
C         -3.59396        1.03209        0.04589  
C          0.67738       -0.27507        0.15097  
C          0.00274        0.84234       -0.35887  
Charge=8.0 Atoms=3                                
O          0.63293       -2.54526        0.93360  
O         -1.76452        1.43252        1.56571  
O         -1.24894       -1.68411        0.12975  
Charge=6.0 Atoms=2                                
C          0.05278       -1.58881        0.44958  
C         -2.15199        1.12841        0.44513  
Charge=8.0 Atoms=1                                
O         -1.36167        0.82832       -0.65825  
Charge=1.0 Atoms=8                                
H         -1.47652       -2.60111        0.39232  
H          2.60948       -1.01173        0.80284  
H          0.15708        2.88266       -1.05823  
H          3.80777        1.09126        0.32364  
H          2.59044        3.04081       -0.61405  
H         -3.81640        0.02049       -0.30287  
H         -4.22480        1.24591        0.91440  
H         -3.81296        1.76576       -0.73332  
                                                  
**DALTON INPUT                                    
.RUN WAVE FUNCTIONS                               
.OPTIMIZE                                         
**WAVE FUNCTIONS                                  
.DFT                                              
 B3LYPg                                           
**END OF DALTON INPUT                             


       *******************************************************************
       *********** Output from DALTON general input processing ***********
       *******************************************************************

 --------------------------------------------------------------------------------
   Overall default print level:    0
   Print level for DALTON.STAT:    1

    HERMIT 1- and 2-electron integral sections will be executed
    "Old" integral transformation used (limited to max 255 basis functions)
    Wave function sections will be executed (SIRIUS module)
 --------------------------------------------------------------------------------


 Chosen parameters for *OPTIMI :
 -------------------------------

 Default 1st order method will be used:   BFGS update.
 Optimization will be performed in redundant internal coordinates.
 Model Hessian will be used as initial Hessian.
 The model Hessian parameters of Roland Lindh will be used.
 
 
 Trust region method will be used to control step (default).
 
 Convergence threshold for gradient set to :      1.00D-04
 Convergence threshold for energy set to   :      1.00D-06
 Convergence threshold for step set to     :      1.00D-04
 Number of convergence criteria set to     :   2


              >>>>>>>>>>>>>>>>>>>>>>>>>>>>>>>>>>>>>>>>>>>>>>>>>>>>>
              >>>>>>>>>> 1st Order Geometry Optimization >>>>>>>>>>
              >>>>>>>>>>>>>>>>>>>>>>>>>>>>>>>>>>>>>>>>>>>>>>>>>>>>>

 Reading .mol file to determine number of atoms for parallel runs.


                      SYMADD: Requested addition of symmetry
                      --------------------------------------

 Symmetry test threshold:  5.00E-06

 - molecule centered at center of mass and rotated so
   principal axes of inertia are along coordinate axes.

 Symmetry class found: C(1)           

 No symmetry elements were found.


   ****************************************************************************
   *************** Output of molecule and basis set information ***************
   ****************************************************************************


    The two title cards from your ".mol" input:
    ------------------------------------------------------------------------
 1:  Title                                                                  
 2:  Generated by the Dalton Input File Plugin for Avogadro                 
    ------------------------------------------------------------------------

  Coordinates are entered in Angstrom and converted to atomic units.
          - Conversion factor : 1 bohr = 0.52917721 A

  Atomic type no.    1
  --------------------
  Nuclear charge:   6.00000
  Number of symmetry independent centers:    7
  Number of basis sets to read;    2
  Basis set file used for this atomic type with Z =   6 :
     "/home/eric/opt/apps/dalton/2013/build/basis/6-31G"

  Info about the basis set file: your basis has no documentation.
  Basis set: 6-31G                                                                           

  Atomic type no.    2
  --------------------
  Nuclear charge:   8.00000
  Number of symmetry independent centers:    3
  Number of basis sets to read;    2
  Basis set file used for this atomic type with Z =   8 :
     "/home/eric/opt/apps/dalton/2013/build/basis/6-31G"

  Info about the basis set file: your basis has no documentation.
  Basis set: 6-31G                                                                           

  Atomic type no.    3
  --------------------
  Nuclear charge:   6.00000
  Number of symmetry independent centers:    2
  Number of basis sets to read;    2
  Basis set file used for this atomic type with Z =   6 :
     "/home/eric/opt/apps/dalton/2013/build/basis/6-31G"

  Info about the basis set file: your basis has no documentation.
  Basis set: 6-31G                                                                           

  Atomic type no.    4
  --------------------
  Nuclear charge:   8.00000
  Number of symmetry independent centers:    1
  Number of basis sets to read;    2
  Basis set file used for this atomic type with Z =   8 :
     "/home/eric/opt/apps/dalton/2013/build/basis/6-31G"

  Info about the basis set file: your basis has no documentation.
  Basis set: 6-31G                                                                           

  Atomic type no.    5
  --------------------
  Nuclear charge:   1.00000
  Number of symmetry independent centers:    8
  Number of basis sets to read;    2
  Basis set file used for this atomic type with Z =   1 :
     "/home/eric/opt/apps/dalton/2013/build/basis/6-31G"

  Info about the basis set file: your basis has no documentation.
  Basis set: 6-31G                                                                           


                      SYMADD: Requested addition of symmetry
                      --------------------------------------

 Symmetry test threshold:  5.00E-06

 - molecule centered at center of mass and rotated so
   principal axes of inertia are along coordinate axes.

 Symmetry class found: C(1)           

 Symmetry Independent Centres             
 ----------------------------
       8 :     -2.21606298     1.18803262    -1.50610488  Isotope  1
       8 :     -1.71797481    -3.73049596    -0.90241125  Isotope  1
       8 :     -3.25331463     1.47206321     2.78214666  Isotope  1
       8 :      1.87603734    -5.37915584     0.50024700  Isotope  1
       6 :      0.32430660     1.27535745    -0.79363446  Isotope  1
       6 :      1.70754279    -0.89198436    -0.15982103  Isotope  1
       6 :      0.69113550    -3.50751709    -0.13087433  Isotope  1
       6 :      1.47378086     3.65888898    -0.84259108  Isotope  1
       6 :     -3.84221474     1.25722491     0.55557470  Isotope  1
       6 :      4.26652631    -0.60699384     0.48896786  Isotope  1
       6 :      4.01559173     3.90427012    -0.19888219  Isotope  1
       6 :      5.41067333     1.77481273     0.47284453  Isotope  1
       6 :     -6.50827814     1.04323496    -0.37924123  Isotope  1
       1 :      0.38785634     5.32076737    -1.36662263  Isotope  1
       1 :      5.39177876    -2.25019128     1.00973982  Isotope  1
       1 :     -2.03985745    -5.54975776    -0.75852913  Isotope  1
       1 :     -6.75390322    -0.73462283    -1.40117077  Isotope  1
       1 :      4.90751269     5.75485257    -0.21628123  Isotope  1
       1 :     -6.95619879     2.65074900    -1.59455093  Isotope  1
       1 :      7.39248591     1.96139625     0.98336117  Isotope  1
       1 :     -7.80159392     1.05514959     1.23484803  Isotope  1

 No symmetry elements were found.


                         SYMGRP: Point group information
                         -------------------------------

Full point group is: C(1)           
Represented as:      C1 


                                 Isotopic Masses
                                 ---------------

                           C          12.000000
                           C          12.000000
                           C          12.000000
                           C          12.000000
                           C          12.000000
                           C          12.000000
                           C          12.000000
                           O          15.994915
                           O          15.994915
                           O          15.994915
                           C          12.000000
                           C          12.000000
                           O          15.994915
                           H           1.007825
                           H           1.007825
                           H           1.007825
                           H           1.007825
                           H           1.007825
                           H           1.007825
                           H           1.007825
                           H           1.007825

                       Total mass:   180.042260 amu
                       Natural abundance:  89.551 %

 Center-of-mass coordinates (a.u.):    0.000000   -0.000000    0.000000


  Atoms and basis sets
  --------------------

  Number of atom types :    5
  Total number of atoms:   21

  Basis set used is "6-31G" from the basis set library.

  label    atoms   charge   prim   cont     basis
  ----------------------------------------------------------------------
  C           7    6.0000    22     9      [10s4p|3s2p]                                       
  O           3    8.0000    22     9      [10s4p|3s2p]                                       
  C           2    6.0000    22     9      [10s4p|3s2p]                                       
  O           1    8.0000    22     9      [10s4p|3s2p]                                       
  H           8    1.0000     4     2      [4s|2s]                                            
  ----------------------------------------------------------------------
  total:     21   94.0000   318   133
  ----------------------------------------------------------------------

  Threshold for neglecting AO integrals:  1.00D-12


  Cartesian Coordinates (a.u.)
  ----------------------------

  Total number of coordinates:   63
  C       :     1  x   4.2665263107    2  y  -0.6069938420    3  z   0.4889678577
  C       :     4  x   1.4737808630    5  y   3.6588889806    6  z  -0.8425910798
  C       :     7  x   5.4106733253    8  y   1.7748127338    9  z   0.4728445331
  C       :    10  x   4.0155917335   11  y   3.9042701198   12  z  -0.1988821875
  C       :    13  x  -6.5082781445   14  y   1.0432349636   15  z  -0.3792412316
  C       :    16  x   1.7075427918   17  y  -0.8919843627   18  z  -0.1598210306
  C       :    19  x   0.3243065981   20  y   1.2753574527   21  z  -0.7936344617
  O       :    22  x   1.8760373357   23  y  -5.3791558424   24  z   0.5002469999
  O       :    25  x  -3.2533146343   26  y   1.4720632123   27  z   2.7821466649
  O       :    28  x  -1.7179748138   29  y  -3.7304959580   30  z  -0.9024112466
  C       :    31  x   0.6911354953   32  y  -3.5075170905   33  z  -0.1308743322
  C       :    34  x  -3.8422147388   35  y   1.2572249077   36  z   0.5555747033
  O       :    37  x  -2.2160629754   38  y   1.1880326165   39  z  -1.5061048794
  H       :    40  x  -2.0398574459   41  y  -5.5497577623   42  z  -0.7585291289
  H       :    43  x   5.3917787591   44  y  -2.2501912756   45  z   1.0097398185
  H       :    46  x   0.3878563422   47  y   5.3207673728   48  z  -1.3666226328
  H       :    49  x   7.3924859122   50  y   1.9613962504   51  z   0.9833611715
  H       :    52  x   4.9075126937   53  y   5.7548525658   54  z  -0.2162812284
  H       :    55  x  -6.7539032240   56  y  -0.7346228297   57  z  -1.4011707707
  H       :    58  x  -7.8015939179   59  y   1.0551495902   60  z   1.2348480336
  H       :    61  x  -6.9561987920   62  y   2.6507490020   63  z  -1.5945509303

  Max    interatomic separation is    8.0557 Angstrom (   15.2232 Bohr)
  between atoms   20 and   17, "H     " and "H     ".

  Min HX interatomic separation is    0.9806 Angstrom (    1.8531 Bohr)

  Min YX interatomic separation is    1.2189 Angstrom (    2.3033 Bohr)


  Bond distances (Angstrom):
  --------------------------

                  atom 1     atom 2       distance
                  ------     ------       --------
  bond distance:  C          C            1.398304
  bond distance:  C          C            1.393594
  bond distance:  C          C            1.393260
  bond distance:  C          C            1.405117
  bond distance:  C          C            1.400562
  bond distance:  C          C            1.401314
  bond distance:  C          C            1.484994
  bond distance:  C          O            1.218871
  bond distance:  C          O            1.343819
  bond distance:  C          C            1.499316
  bond distance:  C          O            1.224057
  bond distance:  O          C            1.396939
  bond distance:  O          C            1.390003
  bond distance:  H          O            0.980625
  bond distance:  H          C            1.089321
  bond distance:  H          C            1.086513
  bond distance:  H          C            1.087459
  bond distance:  H          C            1.087132
  bond distance:  H          C            1.092908
  bond distance:  H          C            1.094526
  bond distance:  H          C            1.092429


  Bond angles (degrees):
  ----------------------

                  atom 1     atom 2     atom 3         angle
                  ------     ------     ------         -----
  bond angle:     C          C          C            120.833
  bond angle:     C          C          H            118.971
  bond angle:     C          C          H            120.195
  bond angle:     C          C          C            119.906
  bond angle:     C          C          H            119.831
  bond angle:     C          C          H            120.262
  bond angle:     C          C          C            120.076
  bond angle:     C          C          H            119.861
  bond angle:     C          C          H            120.063
  bond angle:     C          C          C            119.896
  bond angle:     C          C          H            120.060
  bond angle:     C          C          H            120.045
  bond angle:     C          C          H            109.888
  bond angle:     C          C          H            109.297
  bond angle:     C          C          H            109.852
  bond angle:     H          C          H            108.465
  bond angle:     H          C          H            110.684
  bond angle:     H          C          H            108.618
  bond angle:     C          C          C            118.297
  bond angle:     C          C          C            116.524
  bond angle:     C          C          C            125.177
  bond angle:     C          C          C            120.974
  bond angle:     C          C          O            116.279
  bond angle:     C          C          O            122.697
  bond angle:     C          O          H            103.144
  bond angle:     C          C          O            125.020
  bond angle:     C          C          O            114.981
  bond angle:     O          C          O            119.995
  bond angle:     C          C          O            124.345
  bond angle:     C          C          O            108.759
  bond angle:     O          C          O            126.895
  bond angle:     C          O          C            112.523




 Principal moments of inertia (u*A**2) and principal axes
 --------------------------------------------------------

   IA     465.853973          1.000000   -0.000000    0.000000
   IB     658.879768          0.000000    1.000000    0.000000
   IC    1003.900338         -0.000000   -0.000000    1.000000


 Rotational constants
 --------------------

               A                   B                   C

           1084.8443            767.0277            503.4155 MHz
            0.036187            0.025585            0.016792 cm-1


@  Nuclear repulsion energy :  782.661165278018 Hartree


                     .---------------------------------------.
                     | Starting in Integral Section (HERMIT) |
                     `---------------------------------------'



    *************************************************************************
    ****************** Output from HERMIT input processing ******************
    *************************************************************************



     ************************************************************************
     ************************** Output from HERINT **************************
     ************************************************************************


 Threshold for neglecting two-electron integrals:  1.00D-12
 Number of two-electron integrals written:    29127422 ( 73.4% )
 Megabytes written:                            333.524

 >>>  Time used in TWOINT     is   6.31 seconds
 >>>> Total CPU  time used in HERMIT:   6.55 seconds
 >>>> Total wall time used in HERMIT:   6.55 seconds


                        .----------------------------------.
                        | End of Integral Section (HERMIT) |
                        `----------------------------------'



                   .--------------------------------------------.
                   | Starting in Wave Function Section (SIRIUS) |
                   `--------------------------------------------'


 *** Output from Huckel module :

     Using EWMO model:          T
     Using EHT  model:          F
     Number of Huckel orbitals each symmetry:   73

 EWMO - Energy Weighted Maximum Overlap - is a Huckel type method,
        which normally is better than Extended Huckel Theory.
 Reference: Linderberg and Ohrn, Propagators in Quantum Chemistry (Wiley, 1973)

 Huckel EWMO eigenvalues for symmetry :  1
          -20.686299     -20.685440     -20.684293     -20.683719     -11.364887
          -11.357262     -11.355387     -11.353941     -11.351727     -11.349007
          -11.347607     -11.347253     -11.344149      -2.048467      -1.861079
           -1.851534      -1.569434      -1.481733      -1.424955      -1.386151
           -1.252068      -1.052620      -0.969028      -0.920476      -0.868620
           -0.841874      -0.787271      -0.756904      -0.748634      -0.728702
           -0.697590      -0.666649      -0.642210      -0.610388      -0.596123
           -0.590881      -0.584465      -0.573330      -0.550212      -0.534161
           -0.488981      -0.477522      -0.476171      -0.467060      -0.440136
           -0.421080      -0.385817      -0.289254      -0.270695      -0.244308
           -0.222468      -0.217811      -0.205328      -0.175564      -0.172115
           -0.161438      -0.155184      -0.151004      -0.132114      -0.123593
           -0.121971      -0.121928      -0.120788      -0.117763      -0.116079
           -0.115549      -0.112802      -0.102558      -0.097709      -0.095917
           -0.094684      -0.082601      -0.075879

 **********************************************************************
 *SIRIUS* a direct, restricted step, second order MCSCF program       *
 **********************************************************************

 
     Date and time (Linux)  : Sat Jan 11 16:28:03 2014
     Host name              : gold                                    

 Title lines from ".mol" input file:
      Title                                                                  
      Generated by the Dalton Input File Plugin for Avogadro                 

 Print level on unit LUPRI =   2 is   0
 Print level on unit LUW4  =   2 is   5

@    Restricted, closed shell Kohn-Sham DFT calculation.

 Initial molecular orbitals are obtained according to
 ".MOSTART EWMO  " input option

     Wave function specification
     ============================
@    For the wave function of type :      >>> KS-DFT <<<
@    Number of closed shell electrons          94
@    Number of electrons in active shells       0
@    Total charge of the molecule               0

@    Spin multiplicity and 2 M_S                1         0
     Total number of symmetries                 1
@    Reference state symmetry                   1
 
     This is a DFT calculation of type: B3LYPg
 Weighted mixed functional:
               HF exchange:    0.20000
                     VWN3I:    0.19000
                       LYP:    0.81000
                     Becke:    0.72000
                    Slater:    0.80000

     Orbital specifications
     ======================
     Abelian symmetry species          All |    1
                                       --- |  ---
@    Occupied SCF orbitals              47 |   47
     Secondary orbitals                 86 |   86
     Total number of orbitals          133 |  133
     Number of basis functions         133 |  133

     Optimization information
     ========================
@    Number of configurations                 1
@    Number of orbital rotations           4042
     ------------------------------------------
@    Total number of variables             4043

     Maximum number of Fock   iterations      0
     Maximum number of DIIS   iterations     60
     Maximum number of QC-SCF iterations     60
     Threshold for SCF convergence     1.00D-05
 
     This is a DFT calculation of type: B3LYPg
 Weighted mixed functional:
               HF exchange:    0.20000
                     VWN3I:    0.19000
                       LYP:    0.81000
                     Becke:    0.72000
                    Slater:    0.80000


 >>>>> DIIS optimization of Hartree-Fock <<<<<

 C1-DIIS algorithm; max error vectors =    5

 Iter      Total energy        Error norm    Delta(E)  DIIS dim.
 -----------------------------------------------------------------------------
      K-S energy, electrons, error :    -68.946999147653  93.9999295886   -7.04D-05
@  1    -646.214198387        5.68769D+00   -6.46D+02    1
      Virial theorem: -V/T =      2.007985
@      MULPOP C       0.14; C       0.05; C       0.15; C       0.27; C       0.30; C       0.38; C       0.66; O      -1.02; O      -1.06; O      -0.57; 
@             C       0.97; C       1.35; O      -0.75; H       0.25; H      -0.22; H      -0.22; H      -0.20; H      -0.21; H      -0.08; H      -0.12; 
@             H      -0.08; 
 -----------------------------------------------------------------------------
      K-S energy, electrons, error :    -69.936000588072  93.9999803549   -1.96D-05
@  2    -638.493934517        1.08686D+01    7.72D+00    2
      Virial theorem: -V/T =      1.989143
@      MULPOP C      -1.10; C      -0.97; C      -0.74; C      -0.98; C      -1.19; C      -1.01; C      -1.20; O       3.07; O       2.82; O      -0.17; 
@             C      -1.22; C      -1.43; O       0.64; H       0.44; H       0.47; H       0.41; H       0.42; H       0.43; H       0.43; H       0.45; 
@             H       0.41; 
 -----------------------------------------------------------------------------
      K-S energy, electrons, error :    -70.400560140812  93.9999647538   -3.52D-05
@  3    -647.296554624        4.33286D+00   -8.80D+00    3
      Virial theorem: -V/T =      1.994014
@      MULPOP C       0.02; C       0.23; C       0.03; C       0.27; C      -0.74; C       0.67; C       0.29; O      -1.18; O      -1.04; O      -0.39; 
@             C      -0.14; C       0.37; O       0.01; H       0.36; H       0.08; H       0.07; H       0.10; H       0.10; H       0.30; H       0.24; 
@             H       0.31; 
 -----------------------------------------------------------------------------
      K-S energy, electrons, error :    -69.947898508738  93.9999622609   -3.77D-05
@  4    -648.395368697        1.30728D+00   -1.10D+00    4
      Virial theorem: -V/T =      2.002164
@      MULPOP C      -0.04; C      -0.06; C      -0.06; C      -0.20; C      -0.48; C       0.30; C       0.23; O      -0.67; O      -0.56; O      -0.61; 
@             C       0.69; C       0.76; O      -0.78; H       0.37; H       0.14; H       0.14; H       0.13; H       0.16; H       0.20; H       0.17; 
@             H       0.19; 
 -----------------------------------------------------------------------------
      K-S energy, electrons, error :    -69.564891296818  93.9999625755   -3.74D-05
@  5    -648.410327660        1.15475D+00   -1.50D-02    5
      Virial theorem: -V/T =      2.007116
@      MULPOP C      -0.22; C      -0.03; C      -0.12; C       0.07; C      -0.39; C       0.05; C       0.33; O      -0.45; O      -0.59; O      -0.50; 
@             C       0.32; C       0.49; O      -0.25; H       0.38; H       0.16; H       0.09; H       0.11; H       0.08; H       0.16; H       0.13; 
@             H       0.16; 
 -----------------------------------------------------------------------------
      K-S energy, electrons, error :    -69.729861294822  93.9999621946   -3.78D-05
@  6    -648.478645368        3.64272D-01   -6.83D-02    5
      Virial theorem: -V/T =      2.004972
@      MULPOP C      -0.10; C      -0.09; C      -0.10; C      -0.09; C      -0.48; C       0.20; C       0.20; O      -0.46; O      -0.33; O      -0.52; 
@             C       0.36; C       0.44; O      -0.55; H       0.39; H       0.16; H       0.14; H       0.13; H       0.14; H       0.19; H       0.18; 
@             H       0.18; 
 -----------------------------------------------------------------------------
      K-S energy, electrons, error :    -69.755343836592  93.9999626155   -3.74D-05
@  7    -648.485044148        1.72203D-01   -6.40D-03    5
      Virial theorem: -V/T =      2.004704
@      MULPOP C      -0.16; C      -0.09; C      -0.12; C      -0.13; C      -0.47; C       0.14; C       0.23; O      -0.39; O      -0.44; O      -0.54; 
@             C       0.38; C       0.53; O      -0.50; H       0.39; H       0.18; H       0.15; H       0.15; H       0.15; H       0.19; H       0.18; 
@             H       0.18; 
 -----------------------------------------------------------------------------
      K-S energy, electrons, error :    -69.719740497144  93.9999624506   -3.75D-05
@  8    -648.486373122        5.93748D-02   -1.33D-03    5
      Virial theorem: -V/T =      2.005174
@      MULPOP C      -0.17; C      -0.10; C      -0.12; C      -0.11; C      -0.45; C       0.11; C       0.23; O      -0.41; O      -0.38; O      -0.53; 
@             C       0.41; C       0.49; O      -0.51; H       0.38; H       0.18; H       0.15; H       0.14; H       0.14; H       0.19; H       0.17; 
@             H       0.17; 
 -----------------------------------------------------------------------------
      K-S energy, electrons, error :    -69.713450004983  93.9999622880   -3.77D-05
@  9    -648.486442568        4.83638D-02   -6.94D-05    5
      Virial theorem: -V/T =      2.005249
@      MULPOP C      -0.15; C      -0.10; C      -0.12; C      -0.12; C      -0.45; C       0.14; C       0.22; O      -0.38; O      -0.39; O      -0.54; 
@             C       0.39; C       0.51; O      -0.52; H       0.39; H       0.17; H       0.15; H       0.14; H       0.14; H       0.18; H       0.17; 
@             H       0.17; 
 -----------------------------------------------------------------------------
      K-S energy, electrons, error :    -69.720673815285  93.9999623827   -3.76D-05
@ 10    -648.486579478        7.45516D-03   -1.37D-04    5
      Virial theorem: -V/T =      2.005159
@      MULPOP C      -0.16; C      -0.10; C      -0.12; C      -0.12; C      -0.46; C       0.13; C       0.23; O      -0.39; O      -0.39; O      -0.54; 
@             C       0.40; C       0.50; O      -0.51; H       0.39; H       0.18; H       0.15; H       0.14; H       0.14; H       0.19; H       0.17; 
@             H       0.18; 
 -----------------------------------------------------------------------------
      K-S energy, electrons, error :    -69.721892085487  93.9999623791   -3.76D-05
@ 11    -648.486582284        3.24912D-03   -2.81D-06    5
      Virial theorem: -V/T =      2.005142
@      MULPOP C      -0.16; C      -0.10; C      -0.12; C      -0.12; C      -0.46; C       0.13; C       0.23; O      -0.40; O      -0.39; O      -0.54; 
@             C       0.40; C       0.50; O      -0.51; H       0.39; H       0.18; H       0.15; H       0.14; H       0.14; H       0.19; H       0.17; 
@             H       0.18; 
 -----------------------------------------------------------------------------
      K-S energy, electrons, error :    -69.721101838725  93.9999623836   -3.76D-05
@ 12    -648.486582485        2.56944D-03   -2.00D-07    5
      Virial theorem: -V/T =      2.005151
@      MULPOP C      -0.16; C      -0.10; C      -0.12; C      -0.12; C      -0.46; C       0.13; C       0.23; O      -0.40; O      -0.39; O      -0.54; 
@             C       0.40; C       0.50; O      -0.51; H       0.39; H       0.18; H       0.15; H       0.14; H       0.14; H       0.19; H       0.17; 
@             H       0.18; 
 -----------------------------------------------------------------------------
      K-S energy, electrons, error :    -69.721337998122  93.9999623820   -3.76D-05
@ 13    -648.486582686        1.88997D-03   -2.01D-07    5
      Virial theorem: -V/T =      2.005149
@      MULPOP C      -0.16; C      -0.10; C      -0.12; C      -0.12; C      -0.46; C       0.13; C       0.23; O      -0.39; O      -0.39; O      -0.54; 
@             C       0.40; C       0.50; O      -0.51; H       0.39; H       0.18; H       0.15; H       0.14; H       0.14; H       0.19; H       0.17; 
@             H       0.18; 
 -----------------------------------------------------------------------------
      K-S energy, electrons, error :    -69.721284382607  93.9999623813   -3.76D-05
@ 14    -648.486582880        2.96956D-04   -1.95D-07    5
      Virial theorem: -V/T =      2.005149
@      MULPOP C      -0.16; C      -0.10; C      -0.12; C      -0.12; C      -0.46; C       0.13; C       0.23; O      -0.40; O      -0.39; O      -0.54; 
@             C       0.40; C       0.50; O      -0.51; H       0.39; H       0.18; H       0.15; H       0.14; H       0.14; H       0.19; H       0.17; 
@             H       0.18; 
 -----------------------------------------------------------------------------
      K-S energy, electrons, error :    -69.721348346737  93.9999623818   -3.76D-05
@ 15    -648.486582884        9.59302D-05   -4.01D-09    5
      Virial theorem: -V/T =      2.005149
@      MULPOP C      -0.16; C      -0.10; C      -0.12; C      -0.12; C      -0.46; C       0.13; C       0.23; O      -0.40; O      -0.39; O      -0.54; 
@             C       0.40; C       0.50; O      -0.51; H       0.39; H       0.18; H       0.15; H       0.14; H       0.14; H       0.19; H       0.17; 
@             H       0.18; 
 -----------------------------------------------------------------------------
      K-S energy, electrons, error :    -69.721338166877  93.9999623815   -3.76D-05
@ 16    -648.486582884        7.75031D-05   -1.88D-10    5
      Virial theorem: -V/T =      2.005149
@      MULPOP C      -0.16; C      -0.10; C      -0.12; C      -0.12; C      -0.46; C       0.13; C       0.23; O      -0.40; O      -0.39; O      -0.54; 
@             C       0.40; C       0.50; O      -0.51; H       0.39; H       0.18; H       0.15; H       0.14; H       0.14; H       0.19; H       0.17; 
@             H       0.18; 
 -----------------------------------------------------------------------------
      K-S energy, electrons, error :    -69.721342605234  93.9999623816   -3.76D-05
@ 17    -648.486582885        2.42602D-05   -2.86D-10    5
      Virial theorem: -V/T =      2.005149
@      MULPOP C      -0.16; C      -0.10; C      -0.12; C      -0.12; C      -0.46; C       0.13; C       0.23; O      -0.40; O      -0.39; O      -0.54; 
@             C       0.40; C       0.50; O      -0.51; H       0.39; H       0.18; H       0.15; H       0.14; H       0.14; H       0.19; H       0.17; 
@             H       0.18; 
 -----------------------------------------------------------------------------
      K-S energy, electrons, error :    -69.721337405004  93.9999623816   -3.76D-05
@ 18    -648.486582885        9.09808D-06   -2.71D-11    5

@ *** DIIS converged in  18 iterations !
@     Converged SCF energy, gradient:   -648.486582884679    9.10D-06
    - total time used in SIRFCK :              0.00 seconds


 *** SCF orbital energy analysis ***

 Only the five lowest virtual orbital energies printed in each symmetry.

 Number of electrons :   94
 Orbital occupations :   47

 Sym       Kohn-Sham orbital energies

  1    -19.20809149   -19.20449781   -19.15407450   -19.15044168   -10.33945533
       -10.33589600   -10.27337403   -10.22504992   -10.21209774   -10.21111334
       -10.20877975   -10.20523096   -10.19350202    -1.14578531    -1.12996964
        -1.04969467    -1.04128438    -0.88350038    -0.79398192    -0.78481140
        -0.74820876    -0.68361630    -0.64856895    -0.61420237    -0.59112613
        -0.53307535    -0.51344618    -0.49774361    -0.49314766    -0.48000411
        -0.47573119    -0.46569123    -0.46094793    -0.45176026    -0.41366669
        -0.41045622    -0.40703716    -0.39638721    -0.38235437    -0.37221198
        -0.36857309    -0.32739998    -0.31586552    -0.29089151    -0.28409578
        -0.27548502    -0.26547929    -0.06008649    -0.01950765    -0.00863579
         0.04330328     0.06399331

    E(LUMO) :    -0.06008649 au (symmetry 1)
  - E(HOMO) :    -0.26547929 au (symmetry 1)
  ------------------------------------------
    gap     :     0.20539281 au

 >>> Writing SIRIFC interface file <<<

 >>>> CPU and wall time for SCF :      75.945      77.549


                       .-----------------------------------.
                       | >>> Final results from SIRIUS <<< |
                       `-----------------------------------'


@    Spin multiplicity:           1
@    Spatial symmetry:            1
@    Total charge of molecule:    0

@    Final DFT energy:           -648.486582884679                 
@    Nuclear repulsion:           782.661165278018
@    Electronic energy:         -1431.147748162697

@    Final gradient norm:           0.000009098078

 
     Date and time (Linux)  : Sat Jan 11 16:29:21 2014
     Host name              : gold                                    

 (Only coefficients >0.0100 are printed.)

 Molecular orbitals for symmetry species  1
 ------------------------------------------

    Orbital        43       44       45       46       47       48       49
   2 C   :1s    -0.0132  -0.0129  -0.0023   0.0015   0.0024   0.0014  -0.0043
   3 C   :1s    -0.0656  -0.0328   0.0058   0.0081   0.0128   0.0454  -0.0298
   4 C   :2px    0.0322  -0.0327   0.0366  -0.0534  -0.0659   0.0489   0.0849
   5 C   :2py   -0.0553   0.0265  -0.0111   0.0298   0.0303  -0.0278  -0.0385
   6 C   :2pz    0.0085  -0.0060  -0.0389   0.2048   0.2367  -0.2075  -0.2950
   7 C   :2px    0.0398  -0.0768   0.0271  -0.0366  -0.0498   0.0431   0.1190
   8 C   :2py   -0.0583  -0.0247  -0.0007   0.0225   0.0258  -0.0236  -0.0648
   9 C   :2pz    0.0109  -0.0118  -0.0253   0.1309   0.1703  -0.2587  -0.3848
  10 C   :1s     0.0203   0.0049  -0.0056  -0.0027   0.0011  -0.0010   0.0018
  11 C   :1s    -0.0388  -0.0111   0.0197   0.0043  -0.0004   0.0024  -0.0057
  12 C   :1s    -0.1237   0.0176   0.0179   0.0210  -0.0239  -0.0020  -0.0078
  13 C   :2px    0.0905   0.0064  -0.0404   0.0477   0.0705   0.0223   0.0828
  14 C   :2py    0.1112   0.0413  -0.0196  -0.0452  -0.0299  -0.0148  -0.0364
  15 C   :2pz   -0.0135  -0.0156   0.0404  -0.2154  -0.2485  -0.0865  -0.3022
  16 C   :2px    0.0212   0.0193  -0.0095   0.0376   0.0427   0.0126   0.1365
  17 C   :2py    0.0420   0.0057  -0.0168  -0.0345  -0.0053  -0.0083  -0.0606
  18 C   :2pz   -0.0237  -0.0062   0.0255  -0.1485  -0.1879  -0.1151  -0.3954
  21 C   :1s     0.0232   0.0503  -0.0123  -0.0032  -0.0086  -0.0110   0.0047
  22 C   :2px    0.0161   0.0125   0.0060   0.0233  -0.0811   0.0233  -0.0753
  23 C   :2py    0.0445   0.0043  -0.0076  -0.0177   0.0426  -0.0114   0.0397
  24 C   :2pz   -0.0391  -0.0116  -0.0513  -0.0917   0.2996  -0.0863   0.2784
  25 C   :2px   -0.0001   0.0047   0.0078   0.0171  -0.0530   0.0404  -0.1061
  26 C   :2py    0.0102  -0.0175  -0.0021  -0.0104   0.0298  -0.0131   0.0492
  27 C   :2pz   -0.0259  -0.0070  -0.0358  -0.0593   0.2164  -0.1053   0.3681
  28 C   :1s    -0.0101   0.0052   0.0014   0.0007  -0.0010   0.0001  -0.0002
  29 C   :1s     0.0209  -0.0101  -0.0049  -0.0028   0.0026   0.0006  -0.0004
  30 C   :1s     0.0569  -0.0358  -0.0057  -0.0022   0.0151   0.0136  -0.0171
  31 C   :2px   -0.0412   0.0079   0.0247   0.0860  -0.0193  -0.0750  -0.0055
  32 C   :2py   -0.0633   0.0038   0.0008  -0.0378   0.0050   0.0388   0.0032
  33 C   :2pz   -0.0469  -0.0217  -0.0032  -0.2969   0.0532   0.2744   0.0231
  34 C   :2px   -0.0339   0.0149   0.0096   0.0606  -0.0148  -0.0915  -0.0032
  35 C   :2py   -0.0242   0.0107  -0.0046  -0.0283  -0.0005   0.0415   0.0045
  36 C   :2pz   -0.0319  -0.0127  -0.0032  -0.2099   0.0386   0.3214   0.0343
  37 C   :1s    -0.0004   0.0032   0.0266   0.0006   0.0042   0.0017  -0.0050
  38 C   :1s     0.0028  -0.0051  -0.0435  -0.0015  -0.0056  -0.0029   0.0056
  39 C   :1s    -0.0073  -0.0248  -0.2350  -0.0064  -0.0295  -0.0001   0.0535
  40 C   :2px    0.0117  -0.0244  -0.1585   0.0001  -0.0363  -0.0142   0.0247
  41 C   :2py    0.0043  -0.0128  -0.0150  -0.0026  -0.0060  -0.0054   0.0042
  42 C   :2pz   -0.0049  -0.0322  -0.1285  -0.0014  -0.0189  -0.0072   0.0114
  43 C   :2px    0.0092  -0.0245  -0.1138   0.0025  -0.0368  -0.0264   0.0560
  44 C   :2py   -0.0180  -0.0103  -0.0111   0.0071  -0.0034   0.0119  -0.0173
  45 C   :2pz    0.0029  -0.0332  -0.1089  -0.0032  -0.0097  -0.0077   0.0115
  46 C   :1s    -0.0175   0.0253  -0.0074  -0.0005  -0.0008   0.0006  -0.0019
  47 C   :1s     0.0347  -0.0367   0.0230   0.0029   0.0029   0.0011   0.0041
  48 C   :1s     0.1114  -0.2738   0.0514   0.0019  -0.0074  -0.0383   0.0617
  49 C   :2px   -0.0759   0.0393  -0.0317  -0.0862   0.0204  -0.0577  -0.0100
  50 C   :2py    0.1092   0.1556  -0.0205   0.0216  -0.0086   0.0263   0.0092
  51 C   :2pz   -0.0072   0.0134  -0.0027   0.3263  -0.0768   0.2277   0.0089
  52 C   :2px   -0.0035   0.0133  -0.0062  -0.0686   0.0062  -0.1124   0.0018
  53 C   :2py    0.1337   0.1996  -0.0052   0.0160  -0.0307   0.0094   0.0809
  54 C   :2pz    0.0074  -0.0097  -0.0111   0.2373  -0.0638   0.2882   0.0111
  56 C   :1s    -0.0007   0.0222   0.0086  -0.0022   0.0059   0.0005  -0.0009
  57 C   :1s    -0.0547  -0.0215  -0.0521  -0.0056   0.0082  -0.0114  -0.0259
  58 C   :2px   -0.0128   0.0256   0.0209  -0.0165   0.0588   0.0506  -0.0719
  59 C   :2py   -0.1236  -0.0613   0.0299   0.0263  -0.0461  -0.0292   0.0425
  60 C   :2pz    0.0441   0.0322   0.0929   0.0899  -0.3086  -0.2275   0.3223
  61 C   :2px   -0.0436  -0.0229  -0.0185  -0.0194   0.0862   0.1013  -0.1638
  62 C   :2py    0.0245  -0.0395   0.0151   0.0036  -0.0190  -0.0374   0.0972
  63 C   :2pz    0.0034   0.0091   0.0348   0.0502  -0.1806  -0.2284   0.3432
  65 O   :1s    -0.0029   0.0107  -0.0023  -0.0012  -0.0000  -0.0004   0.0006
  66 O   :1s     0.0175  -0.0302   0.0059  -0.0033   0.0050  -0.0052  -0.0150
  67 O   :2px   -0.0375   0.4793  -0.0990   0.0350  -0.0164   0.0836  -0.0072
  68 O   :2py    0.0467   0.3106  -0.0626  -0.0524   0.0010  -0.0361   0.0031
  69 O   :2pz   -0.0016   0.1006  -0.0161  -0.2043   0.0182  -0.2597   0.0289
  70 O   :2px   -0.0244   0.3174  -0.0690   0.0275  -0.0124   0.0824  -0.0046
  71 O   :2py    0.0327   0.1911  -0.0403  -0.0375   0.0029  -0.0355  -0.0045
  72 O   :2pz   -0.0018   0.0672  -0.0112  -0.1505   0.0153  -0.2538   0.0205
  74 O   :1s    -0.0003   0.0038   0.0100  -0.0051   0.0160   0.0028  -0.0053
  75 O   :1s    -0.0055  -0.0033  -0.0320  -0.0033   0.0020  -0.0032   0.0076
  76 O   :2px    0.0063  -0.1182  -0.5683  -0.0192  -0.0591  -0.0019  -0.0106
  77 O   :2py   -0.3580  -0.0090  -0.0134   0.0442  -0.0099   0.0017   0.1350
  78 O   :2pz    0.0405   0.0203   0.1016  -0.0138   0.0539   0.0102  -0.0258
  79 O   :2px    0.0065  -0.0764  -0.3706  -0.0109  -0.0460  -0.0036  -0.0086
  80 O   :2py   -0.2599  -0.0052  -0.0059   0.0307  -0.0092  -0.0063   0.1307
  81 O   :2pz    0.0305   0.0141   0.0787  -0.0095   0.0408   0.0132  -0.0317
  82 O   :1s    -0.0167  -0.0091   0.0014   0.0012  -0.0017  -0.0013   0.0005
  83 O   :1s     0.0425   0.0052  -0.0011  -0.0025   0.0043   0.0029  -0.0017
  84 O   :1s     0.0518   0.2035  -0.0360  -0.0120   0.0060   0.0133   0.0003
  85 O   :2px   -0.0294   0.2278  -0.0503  -0.0035  -0.0157   0.0543   0.0042
  86 O   :2py    0.0669  -0.1080   0.0224   0.0015   0.0116  -0.0200  -0.0029
  87 O   :2pz   -0.0749   0.0931  -0.0213  -0.0232   0.0192  -0.1640  -0.0120
  88 O   :2px   -0.0249   0.2128  -0.0456  -0.0049  -0.0095   0.0554  -0.0024
  89 O   :2py    0.0278  -0.0845   0.0223   0.0027   0.0050  -0.0233  -0.0020
  90 O   :2pz   -0.0516   0.0847  -0.0167  -0.0174   0.0149  -0.1549   0.0014
  92 C   :1s    -0.0235  -0.0205   0.0106   0.0041  -0.0005  -0.0011   0.0011
  93 C   :1s     0.0173   0.0262   0.0191   0.0060  -0.0222  -0.0182   0.0552
  94 C   :2px    0.0053  -0.0219   0.0066   0.0026   0.0048  -0.1016   0.0018
  95 C   :2py   -0.0562  -0.0392   0.0180   0.0080  -0.0041   0.0387   0.0010
  96 C   :2pz    0.0113  -0.0030   0.0026  -0.0046  -0.0097   0.3124  -0.0098
  97 C   :2px   -0.0147   0.2193  -0.0304  -0.0019  -0.0060  -0.0719   0.0272
  98 C   :2py    0.0444   0.0957  -0.0034  -0.0087  -0.0043   0.0193   0.0081
  99 C   :2pz   -0.0058   0.0584  -0.0099  -0.0145   0.0005   0.2403  -0.0182
 100 C   :1s     0.0013   0.0043   0.0207   0.0046  -0.0140  -0.0134   0.0211
 101 C   :1s    -0.0077  -0.0036  -0.0480  -0.0128   0.0403   0.0375  -0.0474
 102 C   :1s     0.0048  -0.0365  -0.0831  -0.0151   0.0494   0.0766  -0.1740
 103 C   :2px   -0.0119   0.0061   0.0520  -0.0180   0.0770   0.0406  -0.0529
 104 C   :2py   -0.0750  -0.0034   0.0071   0.0165   0.0063   0.0240  -0.1582
 105 C   :2pz    0.0121   0.0145   0.0648   0.0202  -0.0668  -0.0445   0.0741
 106 C   :2px   -0.0008  -0.0441  -0.1679  -0.0091   0.0053   0.0319  -0.0243
 107 C   :2py   -0.0386   0.0023  -0.0017   0.0003   0.0013   0.0101  -0.1589
 108 C   :2pz    0.0080   0.0320   0.1252   0.0030   0.0073  -0.0198   0.0603
 109 O   :1s     0.0003  -0.0075  -0.0177  -0.0060   0.0189   0.0095  -0.0143
 110 O   :1s    -0.0014   0.0149   0.0206   0.0133  -0.0458  -0.0206   0.0299
 111 O   :1s    -0.0059   0.0577   0.2186   0.0252  -0.0507  -0.0498   0.0900
 112 O   :2px    0.0080  -0.0029  -0.0825  -0.0105   0.0151   0.0120  -0.0207
 113 O   :2py    0.4917  -0.0165  -0.0024  -0.0394   0.0488   0.0035   0.0534
 114 O   :2pz   -0.0222   0.0432   0.1826  -0.0397   0.1824   0.0508  -0.0574
 115 O   :2px   -0.0030  -0.0141  -0.0975  -0.0098   0.0182   0.0229  -0.0441
 116 O   :2py    0.3633  -0.0032  -0.0018  -0.0291   0.0375   0.0061   0.0466
 117 O   :2pz   -0.0178   0.0479   0.1909  -0.0295   0.1429   0.0437  -0.0491
 118 H   :1s    -0.0386   0.0040   0.0002   0.0009  -0.0039  -0.0031  -0.0013
 119 H   :1s    -0.0307  -0.0619   0.0184   0.0062  -0.0033  -0.0085  -0.0002
 120 H   :1s     0.0441  -0.0111   0.0093  -0.0023   0.0008  -0.0015   0.0021
 121 H   :1s     0.0297   0.0439  -0.0004  -0.0040  -0.0001   0.0041   0.0026
 122 H   :1s     0.0188   0.0253   0.0069  -0.0028  -0.0013  -0.0021   0.0018
 123 H   :1s     0.0442   0.0336   0.0100  -0.0023  -0.0112  -0.0138   0.0144
 124 H   :1s     0.0074   0.0121  -0.0097  -0.0021   0.0008   0.0004   0.0004
 126 H   :1s    -0.0519  -0.0028   0.0085   0.0044  -0.0023   0.0007  -0.0003
 127 H   :1s    -0.0584  -0.0034   0.0136   0.0056  -0.0027   0.0014   0.0006
 128 H   :1s    -0.0064   0.0174   0.0486   0.0033   0.0088   0.0056  -0.0273
 129 H   :1s    -0.0251  -0.0033   0.0730   0.0115   0.0055   0.0028  -0.0677
 130 H   :1s    -0.0081  -0.0097  -0.0213  -0.0020   0.0051   0.0041  -0.0076
 131 H   :1s    -0.0071  -0.0002   0.0321   0.0011   0.0057   0.0058  -0.0160
 132 H   :1s     0.0098   0.0082   0.0507  -0.0022   0.0052  -0.0059   0.0294
 133 H   :1s     0.0407   0.0069   0.0692  -0.0054   0.0025  -0.0272   0.0824



 >>>> Total CPU  time used in SIRIUS :     76.09 seconds
 >>>> Total wall time used in SIRIUS :     77.69 seconds

 
     Date and time (Linux)  : Sat Jan 11 16:29:21 2014
     Host name              : gold                                    


                     .---------------------------------------.
                     | End of Wave Function Section (SIRIUS) |
                     `---------------------------------------'


     Order of analytical energy-derivatives available:   2
     This will be the default.

 Center of mass dipole origin  :    0.000000   -0.000000    0.000000

 Center of mass gauge origin   :    0.000000   -0.000000    0.000000


                 .------------------------------------------------.
                 | Starting in Static Property Section (ABACUS) - |
                 `------------------------------------------------'


 
     Date and time (Linux)  : Sat Jan 11 16:29:21 2014
     Host name              : gold                                    


   ***************************************************************************
   ************************ FINAL RESULTS from ABACUS ************************
   ***************************************************************************


 
     Date and time (Linux)  : Sat Jan 11 16:30:36 2014
     Host name              : gold                                    


                             Molecular geometry (au)
                             -----------------------

 C          4.2665263107           -0.6069938420            0.4889678577
 C          1.4737808630            3.6588889806           -0.8425910798
 C          5.4106733253            1.7748127338            0.4728445331
 C          4.0155917335            3.9042701198           -0.1988821875
 C         -6.5082781445            1.0432349636           -0.3792412316
 C          1.7075427918           -0.8919843627           -0.1598210306
 C          0.3243065981            1.2753574527           -0.7936344617
 O          1.8760373357           -5.3791558424            0.5002469999
 O         -3.2533146343            1.4720632123            2.7821466649
 O         -1.7179748138           -3.7304959580           -0.9024112466
 C          0.6911354953           -3.5075170905           -0.1308743322
 C         -3.8422147388            1.2572249077            0.5555747033
 O         -2.2160629754            1.1880326165           -1.5061048794
 H         -2.0398574459           -5.5497577623           -0.7585291289
 H          5.3917787591           -2.2501912756            1.0097398185
 H          0.3878563422            5.3207673728           -1.3666226328
 H          7.3924859122            1.9613962504            0.9833611715
 H          4.9075126937            5.7548525658           -0.2162812284
 H         -6.7539032240           -0.7346228297           -1.4011707707
 H         -7.8015939179            1.0551495902            1.2348480336
 H         -6.9561987920            2.6507490020           -1.5945509303





                        Molecular wave function and energy
                        ----------------------------------

     Spin multiplicity  1     State number       1     Total charge       0

     Total energy       -648.4865828847 au (Hartrees)
                        -17646.21756188 eV
                          -1702601.2609 kJ/mol


                             Relativistic corrections
                             ------------------------

     Darwin correction:                          1.3134527729 au
     Mass-velocity correction:                  -1.6506788996 au

     Total relativistic correction:             -0.3372261267 au (0.0520%)
     Non-relativistic + relativistic energy:  -648.8238090114 au




                             Molecular gradient (au)
                             -----------------------

 C         -0.0089581927           -0.0048115461           -0.0015429591
 C          0.0004832927            0.0005379809           -0.0008411516
 C         -0.0042495082            0.0066238947           -0.0023610522
 C         -0.0009416343           -0.0044755188            0.0008081128
 C          0.0055969063            0.0003814439           -0.0076252792
 C         -0.0024086780            0.0082529175           -0.0015076241
 C         -0.0228548934           -0.0126134067            0.0102781492
 O         -0.0226161961            0.0264442010           -0.0106065556
 O         -0.0142575996           -0.0002995155           -0.0001792287
 O          0.0231173039            0.0082465904            0.0049692562
 C         -0.0108292340           -0.0390464325            0.0013134018
 C          0.0395543290            0.0035918921            0.0031304694
 O         -0.0032699355           -0.0014225608           -0.0117708792
 H          0.0123308320            0.0040318402            0.0036343139
 H          0.0061698089           -0.0004371515            0.0018366420
 H          0.0018207634            0.0038404984           -0.0001583102
 H          0.0019441801            0.0008113829            0.0004497134
 H          0.0012614672            0.0010866278            0.0003449933
 H         -0.0006438787           -0.0019964447            0.0042841104
 H         -0.0020980456           -0.0007006288            0.0010107723
 H          0.0008178247            0.0019819753            0.0045255815





                                  Dipole moment
                                  -------------

                 au               Debye          C m (/(10**-30)
              0.949273           2.412811           8.048272


                             Dipole moment components
                             ------------------------

                 au               Debye          C m (/(10**-30)

      x     -0.16236603        -0.41269325        -1.37659652
      y      0.60782069         1.54492598         5.15331838
      z     -0.71085208        -1.80680566        -6.02685494


   Units:   1 a.u. =   2.54175 Debye 
            1 a.u. =   8.47835 (10**-30) C m (SI)



  Max    interatomic separation is    8.0557 Angstrom (   15.2232 Bohr)
  between atoms   20 and   17, "H     " and "H     ".

  Min HX interatomic separation is    0.9806 Angstrom (    1.8531 Bohr)

  Min YX interatomic separation is    1.2189 Angstrom (    2.3033 Bohr)


  Bond distances (Angstrom):
  --------------------------

                  atom 1     atom 2       distance
                  ------     ------       --------
  bond distance:  C          C            1.398304
  bond distance:  C          C            1.393594
  bond distance:  C          C            1.393260
  bond distance:  C          C            1.405117
  bond distance:  C          C            1.400562
  bond distance:  C          C            1.401314
  bond distance:  C          C            1.484994
  bond distance:  C          O            1.218871
  bond distance:  C          O            1.343819
  bond distance:  C          C            1.499316
  bond distance:  C          O            1.224057
  bond distance:  O          C            1.396939
  bond distance:  O          C            1.390003
  bond distance:  H          O            0.980625
  bond distance:  H          C            1.089321
  bond distance:  H          C            1.086513
  bond distance:  H          C            1.087459
  bond distance:  H          C            1.087132
  bond distance:  H          C            1.092908
  bond distance:  H          C            1.094526
  bond distance:  H          C            1.092429


  Bond angles (degrees):
  ----------------------

                  atom 1     atom 2     atom 3         angle
                  ------     ------     ------         -----
  bond angle:     C          C          C            120.833
  bond angle:     C          C          H            118.971
  bond angle:     C          C          H            120.195
  bond angle:     C          C          C            119.906
  bond angle:     C          C          H            119.831
  bond angle:     C          C          H            120.262
  bond angle:     C          C          C            120.076
  bond angle:     C          C          H            119.861
  bond angle:     C          C          H            120.063
  bond angle:     C          C          C            119.896
  bond angle:     C          C          H            120.060
  bond angle:     C          C          H            120.045
  bond angle:     C          C          H            109.888
  bond angle:     C          C          H            109.297
  bond angle:     C          C          H            109.852
  bond angle:     H          C          H            108.465
  bond angle:     H          C          H            110.684
  bond angle:     H          C          H            108.618
  bond angle:     C          C          C            118.297
  bond angle:     C          C          C            116.524
  bond angle:     C          C          C            125.177
  bond angle:     C          C          C            120.974
  bond angle:     C          C          O            116.279
  bond angle:     C          C          O            122.697
  bond angle:     C          O          H            103.144
  bond angle:     C          C          O            125.020
  bond angle:     C          C          O            114.981
  bond angle:     O          C          O            119.995
  bond angle:     C          C          O            124.345
  bond angle:     C          C          O            108.759
  bond angle:     O          C          O            126.895
  bond angle:     C          O          C            112.523




 CPU time statistics for ABACUS
 ------------------------------

 ONEINT     00:00:56      75 %
 TWOTEX     00:00:19      25 %

 TOTAL      00:01:15     100 %


 >>>> Total CPU  time used in ABACUS:  1 minute  15 seconds
 >>>> Total wall time used in ABACUS:  1 minute  15 seconds


                   .-------------------------------------------.
                   | End of Static Property Section (ABACUS) - |
                   `-------------------------------------------'



           :::::::::::::::::::::::::::::::::::::::::::::::::::::::::::
           ::::::::::::::: Optimization Control Center :::::::::::::::
           :::::::::::::::::::::::::::::::::::::::::::::::::::::::::::



                                Next geometry (au)
                                ------------------

 C          4.3460355610           -0.6042889636            0.3791395792
 C          1.5102362180            3.6982373413           -0.7282286776
 C          5.5051612403            1.7644019172            0.3786335917
 C          4.0819568156            3.9225882318           -0.1768015577
 C         -6.5951659139            1.0352764941           -0.4782613759
 C          1.7561529909           -0.8694900467           -0.1711806000
 C          0.3663170891            1.3208118517           -0.7393242376
 O          1.9846391519           -5.3645812093            0.4965887674
 O         -3.3918470608            1.3028418923            2.8110341417
 O         -1.7855108073           -3.7189755390           -0.6434726701
 C          0.7301845746           -3.4787423408           -0.0788366909
 C         -3.9607325523            1.1969960607            0.5655880260
 O         -2.2095964202            1.2452858634           -1.4143345239
 H         -2.1666848355           -5.5318307632           -0.4813499264
 H          5.4487798148           -2.2777989293            0.8210397750
 H          0.3894544120            5.3564995222           -1.1754181693
 H          7.5043528643            1.9229842626            0.8149258612
 H          4.9704865778            5.7713424242           -0.1827644974
 H         -6.7877338031           -0.6768025305           -1.6289630633
 H         -7.9469265218            0.9767640855            1.0830560549
 H         -6.9937299211            2.6745611804           -1.6740551650





                             Optimization information
                             ------------------------

 Iteration number               :       0
 End of optimization            :       F 
 Energy at this geometry is     :    -648.486583
 Norm of gradient               :       0.083591
 Norm of step                   :       0.500001
 Updated trust radius           :       0.500000
 Total Hessian index            :       0




 **************************************************************************************
 ****************** Output of molecule and basis set info suppressed ******************
 **************************************************************************************



                     .---------------------------------------.
                     | Starting in Integral Section (HERMIT) |
                     `---------------------------------------'



    *************************************************************************
    ****************** Output from HERMIT input processing ******************
    *************************************************************************


 Threshold for neglecting two-electron integrals:  1.00D-12
 Number of two-electron integrals written:    28818672 ( 72.6% )
 Megabytes written:                            329.993

 >>>  Time used in TWOINT     is   6.32 seconds
 >>>> Total CPU  time used in HERMIT:   6.49 seconds
 >>>> Total wall time used in HERMIT:   6.50 seconds


                        .----------------------------------.
                        | End of Integral Section (HERMIT) |
                        `----------------------------------'



                   .--------------------------------------------.
                   | Starting in Wave Function Section (SIRIUS) |
                   `--------------------------------------------'


 **********************************************************************
 *SIRIUS* a direct, restricted step, second order MCSCF program       *
 **********************************************************************

 (Wave function specification suppressed here, see output above for initial geometry.)


 >>>>> DIIS optimization of Hartree-Fock <<<<<

 C1-DIIS algorithm; max error vectors =    5

 Iter      Total energy        Error norm    Delta(E)  DIIS dim.
 -----------------------------------------------------------------------------
      K-S energy, electrons, error :    -69.689791217111  93.9999719117   -2.81D-05
@  1    -648.480315868        3.18405D-01    6.27D-03    1
      Virial theorem: -V/T =      2.005356
@      MULPOP C      -0.16; C      -0.10; C      -0.12; C      -0.12; C      -0.46; C       0.13; C       0.23; O      -0.40; O      -0.39; O      -0.55; 
@             C       0.40; C       0.50; O      -0.52; H       0.39; H       0.18; H       0.15; H       0.14; H       0.14; H       0.19; H       0.17; 
@             H       0.18; 
 -----------------------------------------------------------------------------
      K-S energy, electrons, error :    -69.668063361454  93.9999712898   -2.87D-05
@  2    -648.493637753        4.95454D-02   -1.33D-02    2
      Virial theorem: -V/T =      2.005719
@      MULPOP C      -0.16; C      -0.11; C      -0.12; C      -0.12; C      -0.46; C       0.11; C       0.24; O      -0.41; O      -0.40; O      -0.55; 
@             C       0.43; C       0.52; O      -0.53; H       0.39; H       0.18; H       0.15; H       0.14; H       0.14; H       0.19; H       0.18; 
@             H       0.18; 
 -----------------------------------------------------------------------------
      K-S energy, electrons, error :    -69.687630682068  93.9999712754   -2.87D-05
@  3    -648.493741971        4.86769D-02   -1.04D-04    3
      Virial theorem: -V/T =      2.005430
@      MULPOP C      -0.15; C      -0.09; C      -0.11; C      -0.12; C      -0.46; C       0.12; C       0.24; O      -0.41; O      -0.39; O      -0.56; 
@             C       0.41; C       0.51; O      -0.54; H       0.39; H       0.18; H       0.15; H       0.14; H       0.14; H       0.19; H       0.18; 
@             H       0.18; 
 -----------------------------------------------------------------------------
      K-S energy, electrons, error :    -69.677956757046  93.9999712222   -2.88D-05
@  4    -648.493867452        1.60493D-02   -1.25D-04    4
      Virial theorem: -V/T =      2.005575
@      MULPOP C      -0.16; C      -0.10; C      -0.12; C      -0.12; C      -0.46; C       0.12; C       0.24; O      -0.41; O      -0.40; O      -0.55; 
@             C       0.42; C       0.52; O      -0.53; H       0.39; H       0.18; H       0.15; H       0.14; H       0.14; H       0.19; H       0.17; 
@             H       0.18; 
 -----------------------------------------------------------------------------
      K-S energy, electrons, error :    -69.677442605264  93.9999711835   -2.88D-05
@  5    -648.493878008        8.21778D-03   -1.06D-05    5
      Virial theorem: -V/T =      2.005581
@      MULPOP C      -0.16; C      -0.10; C      -0.12; C      -0.12; C      -0.46; C       0.12; C       0.24; O      -0.41; O      -0.39; O      -0.55; 
@             C       0.43; C       0.52; O      -0.53; H       0.39; H       0.18; H       0.15; H       0.14; H       0.14; H       0.19; H       0.17; 
@             H       0.18; 
 -----------------------------------------------------------------------------
      K-S energy, electrons, error :    -69.678094941733  93.9999712070   -2.88D-05
@  6    -648.493881255        2.53884D-03   -3.25D-06    5
      Virial theorem: -V/T =      2.005572
@      MULPOP C      -0.16; C      -0.10; C      -0.12; C      -0.12; C      -0.46; C       0.12; C       0.24; O      -0.41; O      -0.40; O      -0.55; 
@             C       0.43; C       0.52; O      -0.53; H       0.39; H       0.18; H       0.15; H       0.14; H       0.14; H       0.19; H       0.17; 
@             H       0.18; 
 -----------------------------------------------------------------------------
      K-S energy, electrons, error :    -69.677901805368  93.9999712021   -2.88D-05
@  7    -648.493881603        6.26914D-04   -3.48D-07    5
      Virial theorem: -V/T =      2.005574
@      MULPOP C      -0.16; C      -0.10; C      -0.12; C      -0.12; C      -0.46; C       0.12; C       0.24; O      -0.41; O      -0.40; O      -0.55; 
@             C       0.42; C       0.52; O      -0.53; H       0.39; H       0.18; H       0.15; H       0.14; H       0.14; H       0.19; H       0.17; 
@             H       0.18; 
 -----------------------------------------------------------------------------
      K-S energy, electrons, error :    -69.678065888346  93.9999712016   -2.88D-05
@  8    -648.493881623        2.75962D-04   -1.98D-08    5
      Virial theorem: -V/T =      2.005572
@      MULPOP C      -0.16; C      -0.10; C      -0.12; C      -0.12; C      -0.46; C       0.12; C       0.24; O      -0.41; O      -0.40; O      -0.55; 
@             C       0.42; C       0.52; O      -0.53; H       0.39; H       0.18; H       0.15; H       0.14; H       0.14; H       0.19; H       0.17; 
@             H       0.18; 
 -----------------------------------------------------------------------------
      K-S energy, electrons, error :    -69.678020996492  93.9999712015   -2.88D-05
@  9    -648.493881627        1.41814D-04   -4.05D-09    5
      Virial theorem: -V/T =      2.005573
@      MULPOP C      -0.16; C      -0.10; C      -0.12; C      -0.12; C      -0.46; C       0.12; C       0.24; O      -0.41; O      -0.40; O      -0.55; 
@             C       0.42; C       0.52; O      -0.53; H       0.39; H       0.18; H       0.15; H       0.14; H       0.14; H       0.19; H       0.17; 
@             H       0.18; 
 -----------------------------------------------------------------------------
      K-S energy, electrons, error :    -69.678007957168  93.9999712015   -2.88D-05
@ 10    -648.493881628        5.39948D-05   -1.03D-09    5
      Virial theorem: -V/T =      2.005573
@      MULPOP C      -0.16; C      -0.10; C      -0.12; C      -0.12; C      -0.46; C       0.12; C       0.24; O      -0.41; O      -0.40; O      -0.55; 
@             C       0.42; C       0.52; O      -0.53; H       0.39; H       0.18; H       0.15; H       0.14; H       0.14; H       0.19; H       0.17; 
@             H       0.18; 
 -----------------------------------------------------------------------------
      K-S energy, electrons, error :    -69.678016474904  93.9999712015   -2.88D-05
@ 11    -648.493881628        2.73486D-05   -1.39D-10    5
      Virial theorem: -V/T =      2.005573
@      MULPOP C      -0.16; C      -0.10; C      -0.12; C      -0.12; C      -0.46; C       0.12; C       0.24; O      -0.41; O      -0.40; O      -0.55; 
@             C       0.42; C       0.52; O      -0.53; H       0.39; H       0.18; H       0.15; H       0.14; H       0.14; H       0.19; H       0.17; 
@             H       0.18; 
 -----------------------------------------------------------------------------
      K-S energy, electrons, error :    -69.678015812177  93.9999712015   -2.88D-05
@ 12    -648.493881628        9.28228D-06   -4.34D-11    5

@ *** DIIS converged in  12 iterations !
@     Converged SCF energy, gradient:   -648.493881628385    9.28D-06
    - total time used in SIRFCK :              0.00 seconds


 *** SCF orbital energy analysis ***

 Only the five lowest virtual orbital energies printed in each symmetry.

 Number of electrons :   94
 Orbital occupations :   47

 Sym       Kohn-Sham orbital energies

  1    -19.20280640   -19.20271364   -19.15196857   -19.15076816   -10.34095426
       -10.33655899   -10.27490476   -10.22666390   -10.21389889   -10.21111891
       -10.20924436   -10.20628959   -10.19764684    -1.12895925    -1.11908589
        -1.04202572    -1.03187133    -0.88302596    -0.79246618    -0.78473920
        -0.75001448    -0.68224861    -0.64783608    -0.61298278    -0.59054119
        -0.53265773    -0.51058359    -0.49780420    -0.48790393    -0.47583985
        -0.47246746    -0.46056999    -0.45611131    -0.45148509    -0.41604701
        -0.40937923    -0.40567159    -0.39433493    -0.38278598    -0.37066817
        -0.36618223    -0.32459517    -0.31241874    -0.28858890    -0.28413558
        -0.27467276    -0.26486276    -0.06350995    -0.01920119    -0.00877599
         0.03940533     0.06150935

    E(LUMO) :    -0.06350995 au (symmetry 1)
  - E(HOMO) :    -0.26486276 au (symmetry 1)
  ------------------------------------------
    gap     :     0.20135281 au

 >>> Writing SIRIFC interface file <<<

 >>>> CPU and wall time for SCF :      50.392      50.570


                       .-----------------------------------.
                       | >>> Final results from SIRIUS <<< |
                       `-----------------------------------'


@    Spin multiplicity:           1
@    Spatial symmetry:            1
@    Total charge of molecule:    0

@    Final DFT energy:           -648.493881628385                 
@    Nuclear repulsion:           777.951168148094
@    Electronic energy:         -1426.445049776479

[...]


 >>>> Total CPU  time used in SIRIUS :     25.71 seconds
 >>>> Total wall time used in SIRIUS :     25.88 seconds

 
     Date and time (Linux)  : Sat Jan 11 17:09:15 2014
     Host name              : gold                                    


                     .---------------------------------------.
                     | End of Wave Function Section (SIRIUS) |
                     `---------------------------------------'

 Trust radius set equal to norm of step.
 Updated trust radius   0.00279

     Order of analytical energy-derivatives available:   2
     This will be the default.

 Center of mass dipole origin  :   -0.013886    0.017786    0.074730

 Center of mass gauge origin   :   -0.013886    0.017786    0.074730


                 .------------------------------------------------.
                 | Starting in Static Property Section (ABACUS) - |
                 `------------------------------------------------'


 
     Date and time (Linux)  : Sat Jan 11 17:09:15 2014
     Host name              : gold                                    


   ***************************************************************************
   ************************ FINAL RESULTS from ABACUS ************************
   ***************************************************************************


 
     Date and time (Linux)  : Sat Jan 11 17:10:34 2014
     Host name              : gold                                    


 CPU time statistics for ABACUS
 ------------------------------

 ONEINT     00:00:57      75 %
 TWOTEX     00:00:19      25 %
 REST       00:00:01       1 %

 TOTAL      00:01:17     100 %


 >>>> Total CPU  time used in ABACUS:  1 minute  17 seconds
 >>>> Total wall time used in ABACUS:  1 minute  19 seconds


                   .-------------------------------------------.
                   | End of Static Property Section (ABACUS) - |
                   `-------------------------------------------'



           :::::::::::::::::::::::::::::::::::::::::::::::::::::::::::
           ::::::::::::::: Optimization Control Center :::::::::::::::
           :::::::::::::::::::::::::::::::::::::::::::::::::::::::::::



                               Final geometry (au)
                               -------------------

 C          4.3360543685           -0.5752614191            0.3739332656
 C          1.6255585909            3.8067097506           -0.7021222369
 C          5.5841907231            1.7395196296            0.2902168333
 C          4.2228480468            3.9419593063           -0.2598907561
 C         -6.6012591960            0.8802832371           -0.5358996481
 C          1.7181316530           -0.7618396672           -0.0843608834
 C          0.3823322370            1.4818673365           -0.6104203252
 O          1.8811704755           -5.2535593583            0.5828166489
 O         -3.5189905005            0.8145530789            2.9058016203
 O         -1.8723784724           -3.5426305194           -0.6148614167
 C          0.6507314619           -3.3426145776            0.0159262783
 C         -4.0439523579            1.0390782476            0.6624658312
 O         -2.2140529948            1.5239479579           -1.2029863958
 H         -2.3792840771           -5.3213450916           -0.4653137131
 H          5.3481597552           -2.3060299465            0.7888646562
 H          0.5261227696            5.4808823571           -1.1247829888
 H          7.5999292032            1.8289044595            0.6459587283
 H          5.1736315661            5.7565922183           -0.3352188845
 H         -6.6828031409           -0.8188196577           -1.7141745955
 H         -8.0490506314            0.7856507173            0.9263900173
 H         -6.9312600056            2.5082327457           -1.7653273932





                             Optimization information
                             ------------------------

 Iteration number               :      19
 End of optimization            :       T 
 Energy at this geometry is     :    -648.495691
 Energy change from last geom.  :      -0.000000
 Norm of gradient               :       0.000052
 Norm of step                   :       0.000823
 Updated trust radius           :       0.002788
 Total Hessian index            :       0



 Center of mass dipole origin  :   -0.013886    0.017786    0.074730

 Center of mass gauge origin   :   -0.013886    0.017786    0.074730


                 .------------------------------------------------.
                 | Starting in Static Property Section (ABACUS) - |
                 `------------------------------------------------'


 
     Date and time (Linux)  : Sat Jan 11 17:10:34 2014
     Host name              : gold                                    


   ***************************************************************************
   ************************ FINAL RESULTS from ABACUS ************************
   ***************************************************************************


 
     Date and time (Linux)  : Sat Jan 11 17:10:34 2014
     Host name              : gold                                    


                             Molecular geometry (au)
                             -----------------------

 C          4.3360543685           -0.5752614191            0.3739332656
 C          1.6255585909            3.8067097506           -0.7021222369
 C          5.5841907231            1.7395196296            0.2902168333
 C          4.2228480468            3.9419593063           -0.2598907561
 C         -6.6012591960            0.8802832371           -0.5358996481
 C          1.7181316530           -0.7618396672           -0.0843608834
 C          0.3823322370            1.4818673365           -0.6104203252
 O          1.8811704755           -5.2535593583            0.5828166489
 O         -3.5189905005            0.8145530789            2.9058016203
 O         -1.8723784724           -3.5426305194           -0.6148614167
 C          0.6507314619           -3.3426145776            0.0159262783
 C         -4.0439523579            1.0390782476            0.6624658312
 O         -2.2140529948            1.5239479579           -1.2029863958
 H         -2.3792840771           -5.3213450916           -0.4653137131
 H          5.3481597552           -2.3060299465            0.7888646562
 H          0.5261227696            5.4808823571           -1.1247829888
 H          7.5999292032            1.8289044595            0.6459587283
 H          5.1736315661            5.7565922183           -0.3352188845
 H         -6.6828031409           -0.8188196577           -1.7141745955
 H         -8.0490506314            0.7856507173            0.9263900173
 H         -6.9312600056            2.5082327457           -1.7653273932





                        Molecular wave function and energy
                        ----------------------------------

     Spin multiplicity  1     State number       1     Total charge       0

     Total energy       -648.4956905852 au (Hartrees)
                        -17646.46539502 eV
                          -1702625.1731 kJ/mol


                             Relativistic corrections
                             ------------------------

     Darwin correction:                          1.3133344526 au
     Mass-velocity correction:                  -1.6504549726 au

     Total relativistic correction:             -0.3371205200 au (0.0520%)
     Non-relativistic + relativistic energy:  -648.8328111052 au




                                  Dipole moment
                                  -------------

                 au               Debye          C m (/(10**-30)
              1.066681           2.711233           9.043699


                             Dipole moment components
                             ------------------------

                 au               Debye          C m (/(10**-30)

      x     -0.23914723        -0.60785158        -2.02757462
      y      0.67199396         1.70803817         5.69740206
      z     -0.79312118        -2.01591284        -6.72436143


   Units:   1 a.u. =   2.54175 Debye 
            1 a.u. =   8.47835 (10**-30) C m (SI)



  Max    interatomic separation is    8.3008 Angstrom (   15.6862 Bohr)
  between atoms   20 and   17, "H     " and "H     ".

  Min HX interatomic separation is    0.9819 Angstrom (    1.8556 Bohr)

  Min YX interatomic separation is    1.2250 Angstrom (    2.3149 Bohr)


  Bond distances (Angstrom):
  --------------------------

                  atom 1     atom 2       distance
                  ------     ------       --------
  bond distance:  C          C            1.392356
  bond distance:  C          C            1.396043
  bond distance:  C          C            1.400732
  bond distance:  C          C            1.409874
  bond distance:  C          C            1.395956
  bond distance:  C          C            1.409572
  bond distance:  C          C            1.478840
  bond distance:  C          O            1.239569
  bond distance:  C          O            1.380329
  bond distance:  C          C            1.496843
  bond distance:  C          O            1.224968
  bond distance:  O          C            1.409453
  bond distance:  O          C            1.406411
  bond distance:  H          O            0.981926
  bond distance:  H          C            1.083468
  bond distance:  H          C            1.083232
  bond distance:  H          C            1.084199
  bond distance:  H          C            1.084821
  bond distance:  H          C            1.095017
  bond distance:  H          C            1.090072
  bond distance:  H          C            1.093569


  Bond angles (degrees):
  ----------------------

                  atom 1     atom 2     atom 3         angle
                  ------     ------     ------         -----
  bond angle:     C          C          C            121.483
  bond angle:     C          C          H            121.040
  bond angle:     C          C          H            117.476
  bond angle:     C          C          C            120.221
  bond angle:     C          C          H            121.430
  bond angle:     C          C          H            118.349
  bond angle:     C          C          C            119.647
  bond angle:     C          C          H            119.971
  bond angle:     C          C          H            120.383
  bond angle:     C          C          C            119.902
  bond angle:     C          C          H            119.725
  bond angle:     C          C          H            120.373
  bond angle:     C          C          H            108.842
  bond angle:     C          C          H            109.710
  bond angle:     C          C          H            110.621
  bond angle:     H          C          H            109.803
  bond angle:     H          C          H            107.565
  bond angle:     H          C          H            110.259
  bond angle:     C          C          C            117.888
  bond angle:     C          C          C            115.709
  bond angle:     C          C          C            126.400
  bond angle:     C          C          C            120.855
  bond angle:     C          C          O            115.960
  bond angle:     C          C          O            123.100
  bond angle:     C          O          H            108.558
  bond angle:     C          C          O            124.154
  bond angle:     C          C          O            115.569
  bond angle:     O          C          O            120.269
  bond angle:     C          C          O            127.600
  bond angle:     C          C          O            109.594
  bond angle:     O          C          O            122.804
  bond angle:     C          O          C            120.806




 CPU time statistics for ABACUS
 ------------------------------




 >>>> Total CPU  time used in ABACUS:   0.28 seconds
 >>>> Total wall time used in ABACUS:   0.28 seconds


                   .-------------------------------------------.
                   | End of Static Property Section (ABACUS) - |
                   `-------------------------------------------'



          <<<<<<<<<<<<<<<<<<<<<<<<<<<<<<<<<<<<<<<<<<<<<<<<<<<<<<<<<<<<<<
          <<<<<<<<<<<<<<<<<<<<  End of Optimization <<<<<<<<<<<<<<<<<<<<
          <<<<<<<<<<<<<<<<<<<<<<<<<<<<<<<<<<<<<<<<<<<<<<<<<<<<<<<<<<<<<<



                                  Final geometry
                                  --------------

 C          4.3360543685           -0.5752614191            0.3739332656
 C          1.6255585909            3.8067097506           -0.7021222369
 C          5.5841907231            1.7395196296            0.2902168333
 C          4.2228480468            3.9419593063           -0.2598907561
 C         -6.6012591960            0.8802832371           -0.5358996481
 C          1.7181316530           -0.7618396672           -0.0843608834
 C          0.3823322370            1.4818673365           -0.6104203252
 O          1.8811704755           -5.2535593583            0.5828166489
 O         -3.5189905005            0.8145530789            2.9058016203
 O         -1.8723784724           -3.5426305194           -0.6148614167
 C          0.6507314619           -3.3426145776            0.0159262783
 C         -4.0439523579            1.0390782476            0.6624658312
 O         -2.2140529948            1.5239479579           -1.2029863958
 H         -2.3792840771           -5.3213450916           -0.4653137131
 H          5.3481597552           -2.3060299465            0.7888646562
 H          0.5261227696            5.4808823571           -1.1247829888
 H          7.5999292032            1.8289044595            0.6459587283
 H          5.1736315661            5.7565922183           -0.3352188845
 H         -6.6828031409           -0.8188196577           -1.7141745955
 H         -8.0490506314            0.7856507173            0.9263900173
 H         -6.9312600056            2.5082327457           -1.7653273932



@ Iter      Energy        Change       GradNorm  Index   StepLen    TrustRad #Rej
@ -------------------------------------------------------------------------------
@   0     -648.486583     0.000000     0.083591    0    0.500001    0.500000   0 
@   1     -648.493882    -0.007299     0.026934    0    0.600009    0.600001   0 
@   2     -648.494789    -0.000907     0.023660    0    0.177947*   0.600009   1 
@   3     -648.495249    -0.000460     0.017384    0    0.177947    0.177947   0 
@   4     -648.495499    -0.000250     0.005937    0    0.163833*   0.177947   0 
@   5     -648.495588    -0.000088     0.004323    0    0.105595*   0.196599   0 
@   6     -648.495606    -0.000018     0.003425    0    0.091501*   0.105595   0 
@   7     -648.495625    -0.000020     0.003321    0    0.091501    0.091501   0 
@   8     -648.495650    -0.000025     0.001861    0    0.054430*   0.109801   0 
@   9     -648.495666    -0.000015     0.001275    0    0.109794*   0.109801   0 
@  10     -648.495679    -0.000013     0.001449    0    0.125275*   0.131753   0 
@  11     -648.495685    -0.000006     0.001877    0    0.016982*   0.125275   0 
@  12     -648.495688    -0.000003     0.000716    0    0.017976*   0.125275   0 
@  13     -648.495689    -0.000001     0.000496    0    0.012492*   0.017976   0 
@  14     -648.495689    -0.000001     0.000405    0    0.017976    0.017976   0 
@  15     -648.495690    -0.000001     0.000376    0    0.021572    0.021571   0 
@  16     -648.495690    -0.000000     0.000450    0    0.022423*   0.025886   0 
@  17     -648.495691    -0.000000     0.000315    0    0.005247*   0.022423   0 
@  18     -648.495691    -0.000000     0.000140    0    0.002788*   0.005247   0 
@  19     -648.495691    -0.000000     0.000052    0    0.000823*   0.002788   0 

@  *) Newton step taken.

  Max    interatomic separation is    8.3008 Angstrom (   15.6862 Bohr)
  between atoms   20 and   17, "H     " and "H     ".

  Min HX interatomic separation is    0.9819 Angstrom (    1.8556 Bohr)

  Min YX interatomic separation is    1.2250 Angstrom (    2.3149 Bohr)


  Bond distances (Angstrom):
  --------------------------

                  atom 1     atom 2       distance
                  ------     ------       --------
  bond distance:  C          C            1.392356
  bond distance:  C          C            1.396043
  bond distance:  C          C            1.400732
  bond distance:  C          C            1.409874
  bond distance:  C          C            1.395956
  bond distance:  C          C            1.409572
  bond distance:  C          C            1.478840
  bond distance:  C          O            1.239569
  bond distance:  C          O            1.380329
  bond distance:  C          C            1.496843
  bond distance:  C          O            1.224968
  bond distance:  O          C            1.409453
  bond distance:  O          C            1.406411
  bond distance:  H          O            0.981926
  bond distance:  H          C            1.083468
  bond distance:  H          C            1.083232
  bond distance:  H          C            1.084199
  bond distance:  H          C            1.084821
  bond distance:  H          C            1.095017
  bond distance:  H          C            1.090072
  bond distance:  H          C            1.093569


  Bond angles (degrees):
  ----------------------

                  atom 1     atom 2     atom 3         angle
                  ------     ------     ------         -----
  bond angle:     C          C          C            121.483
  bond angle:     C          C          H            121.040
  bond angle:     C          C          H            117.476
  bond angle:     C          C          C            120.221
  bond angle:     C          C          H            121.430
  bond angle:     C          C          H            118.349
  bond angle:     C          C          C            119.647
  bond angle:     C          C          H            119.971
  bond angle:     C          C          H            120.383
  bond angle:     C          C          C            119.902
  bond angle:     C          C          H            119.725
  bond angle:     C          C          H            120.373
  bond angle:     C          C          H            108.842
  bond angle:     C          C          H            109.710
  bond angle:     C          C          H            110.621
  bond angle:     H          C          H            109.803
  bond angle:     H          C          H            107.565
  bond angle:     H          C          H            110.259
  bond angle:     C          C          C            117.888
  bond angle:     C          C          C            115.709
  bond angle:     C          C          C            126.400
  bond angle:     C          C          C            120.855
  bond angle:     C          C          O            115.960
  bond angle:     C          C          O            123.100
  bond angle:     C          O          H            108.558
  bond angle:     C          C          O            124.154
  bond angle:     C          C          O            115.569
  bond angle:     O          C          O            120.269
  bond angle:     C          C          O            127.600
  bond angle:     C          C          O            109.594
  bond angle:     O          C          O            122.804
  bond angle:     C          O          C            120.806



@ Geometry converged in 20 iterations!

@ Energy at final geometry is       :    -648.495691 a.u.
@ Energy change during optimization :      -0.009108 a.u.
@                                            -23.912 kJ/mol
 
 >>>> Total CPU  time used in DALTON: 42 minutes 21 seconds
 >>>> Total wall time used in DALTON: 42 minutes 38 seconds

 
     Date and time (Linux)  : Sat Jan 11 17:10:34 2014
     Host name              : gold                                    
