

     ************************************************************************
     *************** Dalton - An Electronic Structure Program ***************
     ************************************************************************

    This is output from DALTON (Release Dalton2013 patch 0)
   ----------------------------------------------------------------------------
    NOTE:
     
    Dalton is an experimental code for the evaluation of molecular
    properties using (MC)SCF, DFT, CI, and CC wave functions.
    The authors accept no responsibility for the performance of
    the code or for the correctness of the results.
     
    The code (in whole or part) is provided under a licence and
    is not to be reproduced for further distribution without
    the written permission of the authors or their representatives.
     
    See the home page "http://daltonprogram.org" for further information.
     
    If results obtained with this code are published,
    the appropriate citations would be both of:
     
       K. Aidas, C. Angeli, K. L. Bak, V. Bakken, R. Bast,
       L. Boman, O. Christiansen, R. Cimiraglia, S. Coriani,
       P. Dahle, E. K. Dalskov, U. Ekstroem, T. Enevoldsen,
       J. J. Eriksen, P. Ettenhuber, B. Fernandez, L. Ferrighi,
       H. Fliegl, L. Frediani, K. Hald, A. Halkier, C. Haettig,
       H. Heiberg, T. Helgaker, A. C. Hennum, H. Hettema,
       E. Hjertenaes, S. Hoest, I.-M. Hoeyvik, M. F. Iozzi,
       B. Jansik, H. J. Aa. Jensen, D. Jonsson, P. Joergensen,
       J. Kauczor, S. Kirpekar, T. Kjaergaard, W. Klopper,
       S. Knecht, R. Kobayashi, H. Koch, J. Kongsted, A. Krapp,
       K. Kristensen, A. Ligabue, O. B. Lutnaes, J. I. Melo,
       K. V. Mikkelsen, R. H. Myhre, C. Neiss, C. B. Nielsen,
       P. Norman, J. Olsen, J. M. H. Olsen, A. Osted,
       M. J. Packer, F. Pawlowski, T. B. Pedersen, P. F. Provasi,
       S. Reine, Z. Rinkevicius, T. A. Ruden, K. Ruud, V. Rybkin,
       P. Salek, C. C. M. Samson, A. Sanchez de Meras, T. Saue,
       S. P. A. Sauer, B. Schimmelpfennig, K. Sneskov,
       A. H. Steindal, K. O. Sylvester-Hvid, P. R. Taylor,
       A. M. Teale, E. I. Tellgren, D. P. Tew, A. J. Thorvaldsen,
       L. Thoegersen, O. Vahtras, M. A. Watson, D. J. D. Wilson,
       M. Ziolkowski and H. Aagren,
       "The Dalton quantum chemistry program system",
       WIREs Comput. Mol. Sci. 2013. (doi: 10.1002/wcms.1172)
    
    and
    
       Dalton, a Molecular Electronic Structure Program,
       Release DALTON2013.0 (2013), see http://daltonprogram.org
   ----------------------------------------------------------------------------

    Authors in alphabetical order (major contribution(s) in parenthesis):

  Kestutis Aidas,           Vilnius University,           Lithuania   (QM/MM)
  Celestino Angeli,         University of Ferrara,        Italy       (NEVPT2)
  Keld L. Bak,              UNI-C,                        Denmark     (AOSOPPA, non-adiabatic coupling, magnetic properties)
  Vebjoern Bakken,          University of Oslo,           Norway      (DALTON; geometry optimizer, symmetry detection)
  Radovan Bast,             KTH Stockholm,                Sweden      (DALTON installation and execution frameworks)
  Linus Boman,              NTNU,                         Norway      (Cholesky decomposition and subsystems)
  Ove Christiansen,         Aarhus University,            Denmark     (CC module)
  Renzo Cimiraglia,         University of Ferrara,        Italy       (NEVPT2)
  Sonia Coriani,            University of Trieste,        Italy       (CC module, MCD in RESPONS)
  Paal Dahle,               University of Oslo,           Norway      (Parallelization)
  Erik K. Dalskov,          UNI-C,                        Denmark     (SOPPA)
  Thomas Enevoldsen,        Univ. of Southern Denmark,    Denmark     (SOPPA)
  Janus J. Eriksen,         Aarhus University,            Denmark     (PE-MP2/SOPPA, TDA)
  Berta Fernandez,          U. of Santiago de Compostela, Spain       (doublet spin, ESR in RESPONS)
  Lara Ferrighi,            Aarhus University,            Denmark     (PCM Cubic response)
  Heike Fliegl,             University of Oslo,           Norway      (CCSD(R12))
  Luca Frediani,            UiT The Arctic U. of Norway,  Norway      (PCM)
  Bin Gao,                  UiT The Arctic U. of Norway,  Norway      (Gen1Int library)
  Christof Haettig,         Ruhr-University Bochum,       Germany     (CC module)
  Kasper Hald,              Aarhus University,            Denmark     (CC module)
  Asger Halkier,            Aarhus University,            Denmark     (CC module)
  Hanne Heiberg,            University of Oslo,           Norway      (geometry analysis, selected one-electron integrals)
  Trygve Helgaker,          University of Oslo,           Norway      (DALTON; ABACUS, ERI, DFT modules, London, and much more)
  Alf Christian Hennum,     University of Oslo,           Norway      (Parity violation)
  Hinne Hettema,            University of Auckland,       New Zealand (quadratic response in RESPONS; SIRIUS supersymmetry)
  Eirik Hjertenaes,         NTNU,                         Norway      (Cholesky decomposition)
  Maria Francesca Iozzi,    University of Oslo,           Norway      (RPA)
  Brano Jansik              Technical Univ. of Ostrava    Czech Rep.  (DFT cubic response)
  Hans Joergen Aa. Jensen,  Univ. of Southern Denmark,    Denmark     (DALTON; SIRIUS, RESPONS, ABACUS modules, London, and much more)
  Dan Jonsson,              UiT The Arctic U. of Norway,  Norway      (cubic response in RESPONS module)
  Poul Joergensen,          Aarhus University,            Denmark     (RESPONS, ABACUS, and CC modules)
  Joanna Kauczor,           Linkoeping University,        Sweden      (Complex polarization propagator (CPP) module)
  Sheela Kirpekar,          Univ. of Southern Denmark,    Denmark     (Mass-velocity & Darwin integrals)
  Wim Klopper,              KIT Karlsruhe,                Germany     (R12 code in CC, SIRIUS, and ABACUS modules)
  Stefan Knecht,            ETH Zurich,                   Switzerland (Parallel CI and MCSCF)
  Rika Kobayashi,           Australian National Univ.,    Australia   (DIIS in CC, London in MCSCF)
  Henrik Koch,              NTNU,                         Norway      (CC module, Cholesky decomposition)
  Jacob Kongsted,           Univ. of Southern Denmark,    Denmark     (Polarizable embedding, QM/MM)
  Andrea Ligabue,           University of Modena,         Italy       (CTOCD, AOSOPPA)
  Ola B. Lutnaes,           University of Oslo,           Norway      (DFT Hessian)
  Juan I. Melo,             University of Buenos Aires,   Argentina   (LRESC, Relativistic Effects on NMR Shieldings)
  Kurt V. Mikkelsen,        University of Copenhagen,     Denmark     (MC-SCRF and QM/MM)
  Rolf H. Myhre,            NTNU,                         Norway      (Cholesky, subsystems and ECC2)
  Christian Neiss,          Univ. Erlangen-Nuernberg,     Germany     (CCSD(R12))
  Christian B. Nielsen,     University of Copenhagen,     Denmark     (QM/MM)
  Patrick Norman,           Linkoeping University,        Sweden      (Cubic response and complex response in RESPONS)
  Jeppe Olsen,              Aarhus University,            Denmark     (SIRIUS CI/density modules)
  Jogvan Magnus H. Olsen,   Univ. of Southern Denmark,    Denmark     (Polarizable embedding, PE library, QM/MM)
  Anders Osted,             Copenhagen University,        Denmark     (QM/MM)
  Martin J. Packer,         University of Sheffield,      UK          (SOPPA)
  Filip Pawlowski,          Kazimierz Wielki University,  Poland      (CC3)
  Thomas B. Pedersen,       University of Oslo,           Norway      (Cholesky decomposition)
  Patricio F. Provasi,      University of Northeastern,   Argentina   (Analysis of coupling constants in localized orbitals)
  Zilvinas Rinkevicius,     KTH Stockholm,                Sweden      (open-shell DFT, ESR)
  Elias Rudberg,            KTH Stockholm,                Sweden      (DFT grid and basis info)
  Torgeir A. Ruden,         University of Oslo,           Norway      (Numerical derivatives in ABACUS)
  Kenneth Ruud,             UiT The Arctic U. of Norway,  Norway      (DALTON; ABACUS magnetic properties and  much more)
  Pawel Salek,              KTH Stockholm,                Sweden      (DALTON; DFT code)
  Claire C. M. Samson       University of Karlsruhe       Germany     (Boys localization, r12 integrals in ERI)
  Alfredo Sanchez de Meras, University of Valencia,       Spain       (CC module, Cholesky decomposition)
  Trond Saue,               Paul Sabatier University,     France      (direct Fock matrix construction)
  Stephan P. A. Sauer,      University of Copenhagen,     Denmark     (SOPPA(CCSD), SOPPA prop., AOSOPPA, vibrational g-factors)
  Bernd Schimmelpfennig,    Forschungszentrum Karlsruhe,  Germany     (AMFI module)
  Kristian Sneskov,         Aarhus University,            Denmark     (QM/MM, PE-CC)
  Arnfinn H. Steindal,      UiT The Arctic U. of Norway,  Norway      (parallel QM/MM)
  K. O. Sylvester-Hvid,     University of Copenhagen,     Denmark     (MC-SCRF)
  Peter R. Taylor,          VLSCI/Univ. of Melbourne,     Australia   (Symmetry handling ABACUS, integral transformation)
  Andrew M. Teale,          University of Nottingham,     England     (DFT-AC, DFT-D)
  David P. Tew,             University of Bristol,        England     (CCSD(R12))
  Olav Vahtras,             KTH Stockholm,                Sweden      (triplet response, spin-orbit, ESR, TDDFT, open-shell DFT)
  David J. Wilson,          La Trobe University,          Australia   (DFT Hessian and DFT magnetizabilities)
  Hans Agren,               KTH Stockholm,                Sweden      (SIRIUS module, RESPONS, MC-SCRF solvation model)
 --------------------------------------------------------------------------------

     Date and time (Linux)  : Wed Dec 18 23:33:29 2013
     Host name              : gold                                    

 * Work memory size             :    64000000 =  488.28 megabytes.

 * Directories for basis set searches:
   1) /home/eric/repos/forks/qmspeedtest/dalton/2013/b3lyp
   2) /home/eric/opt/apps/dalton/2013/build/basis


Compilation information
-----------------------

 Who compiled             | eric
 Host                     | gold
 System                   | Linux-3.11.0-13-generic
 CMake generator          | Unix Makefiles
 Processor                | x86_64
 64-bit integers          | OFF
 MPI                      | OFF
 Fortran compiler         | /home/eric/opt/apps/intel/2013_sp1_update1/compose
                          | r_xe_2013_sp1.1.106/bin/intel64/ifort
 Fortran compiler version | ifort (IFORT) 14.0.1 20131008
 C compiler               | /home/eric/opt/apps/intel/2013_sp1_update1/compose
                          | r_xe_2013_sp1.1.106/bin/intel64/icc
 C compiler version       | icc (ICC) 14.0.1 20131008
 C++ compiler             | /home/eric/opt/apps/intel/2013_sp1_update1/compose
                          | r_xe_2013_sp1.1.106/bin/intel64/icpc
 C++ compiler version     | icpc (ICC) 14.0.1 20131008
 Static linking           | OFF
 Last Git revision        | 575a5cf6d2c5c3776735f11fa026dbfca0382455
 Configuration time       | 2013-11-19 15:01:21.168702


   Content of the .dal input file
 ----------------------------------

BASIS                                             
6-31G                                             
 Title                                            
 Generated by the Dalton Input File Plugin for Avo
Atomtypes=5 Angstrom                              
Charge=6.0 Atoms=7                                
C          2.05639       -0.16543        0.39727  
C          0.68890        2.02854       -0.64816  
C          2.74071        1.02327        0.12533  
C          2.05734        2.11782       -0.40016  
C         -3.59396        1.03209        0.04589  
C          0.67738       -0.27507        0.15097  
C          0.00274        0.84234       -0.35887  
Charge=8.0 Atoms=3                                
O          0.63293       -2.54526        0.93360  
O         -1.76452        1.43252        1.56571  
O         -1.24894       -1.68411        0.12975  
Charge=6.0 Atoms=2                                
C          0.05278       -1.58881        0.44958  
C         -2.15199        1.12841        0.44513  
Charge=8.0 Atoms=1                                
O         -1.36167        0.82832       -0.65825  
Charge=1.0 Atoms=8                                
H         -1.47652       -2.60111        0.39232  
H          2.60948       -1.01173        0.80284  
H          0.15708        2.88266       -1.05823  
H          3.80777        1.09126        0.32364  
H          2.59044        3.04081       -0.61405  
H         -3.81640        0.02049       -0.30287  
H         -4.22480        1.24591        0.91440  
H         -3.81296        1.76576       -0.73332  
                                                  
**DALTON INPUT                                    
.RUN WAVE FUNCTIONS                               
.OPTIMIZE                                         
**WAVE FUNCTIONS                                  
.DFT                                              
 B3LYP                                            
**END OF DALTON INPUT                             


       *******************************************************************
       *********** Output from DALTON general input processing ***********
       *******************************************************************

 --------------------------------------------------------------------------------
   Overall default print level:    0
   Print level for DALTON.STAT:    1

    HERMIT 1- and 2-electron integral sections will be executed
    "Old" integral transformation used (limited to max 255 basis functions)
    Wave function sections will be executed (SIRIUS module)
 --------------------------------------------------------------------------------


 Chosen parameters for *OPTIMI :
 -------------------------------

 Default 1st order method will be used:   BFGS update.
 Optimization will be performed in redundant internal coordinates.
 Model Hessian will be used as initial Hessian.
 The model Hessian parameters of Roland Lindh will be used.
 
 
 Trust region method will be used to control step (default).
 
 Convergence threshold for gradient set to :      1.00D-04
 Convergence threshold for energy set to   :      1.00D-06
 Convergence threshold for step set to     :      1.00D-04
 Number of convergence criteria set to     :   2


              >>>>>>>>>>>>>>>>>>>>>>>>>>>>>>>>>>>>>>>>>>>>>>>>>>>>>
              >>>>>>>>>> 1st Order Geometry Optimization >>>>>>>>>>
              >>>>>>>>>>>>>>>>>>>>>>>>>>>>>>>>>>>>>>>>>>>>>>>>>>>>>

 Reading .mol file to determine number of atoms for parallel runs.


                      SYMADD: Requested addition of symmetry
                      --------------------------------------

 Symmetry test threshold:  5.00E-06

 - molecule centered at center of mass and rotated so
   principal axes of inertia are along coordinate axes.

 Symmetry class found: C(1)           

 No symmetry elements were found.


   ****************************************************************************
   *************** Output of molecule and basis set information ***************
   ****************************************************************************


    The two title cards from your ".mol" input:
    ------------------------------------------------------------------------
 1:  Title                                                                  
 2:  Generated by the Dalton Input File Plugin for Avogadro                 
    ------------------------------------------------------------------------

  Coordinates are entered in Angstrom and converted to atomic units.
          - Conversion factor : 1 bohr = 0.52917721 A

  Atomic type no.    1
  --------------------
  Nuclear charge:   6.00000
  Number of symmetry independent centers:    7
  Number of basis sets to read;    2
  Basis set file used for this atomic type with Z =   6 :
     "/home/eric/opt/apps/dalton/2013/build/basis/6-31G"

  Info about the basis set file: your basis has no documentation.
  Basis set: 6-31G                                                                           

  Atomic type no.    2
  --------------------
  Nuclear charge:   8.00000
  Number of symmetry independent centers:    3
  Number of basis sets to read;    2
  Basis set file used for this atomic type with Z =   8 :
     "/home/eric/opt/apps/dalton/2013/build/basis/6-31G"

  Info about the basis set file: your basis has no documentation.
  Basis set: 6-31G                                                                           

  Atomic type no.    3
  --------------------
  Nuclear charge:   6.00000
  Number of symmetry independent centers:    2
  Number of basis sets to read;    2
  Basis set file used for this atomic type with Z =   6 :
     "/home/eric/opt/apps/dalton/2013/build/basis/6-31G"

  Info about the basis set file: your basis has no documentation.
  Basis set: 6-31G                                                                           

  Atomic type no.    4
  --------------------
  Nuclear charge:   8.00000
  Number of symmetry independent centers:    1
  Number of basis sets to read;    2
  Basis set file used for this atomic type with Z =   8 :
     "/home/eric/opt/apps/dalton/2013/build/basis/6-31G"

  Info about the basis set file: your basis has no documentation.
  Basis set: 6-31G                                                                           

  Atomic type no.    5
  --------------------
  Nuclear charge:   1.00000
  Number of symmetry independent centers:    8
  Number of basis sets to read;    2
  Basis set file used for this atomic type with Z =   1 :
     "/home/eric/opt/apps/dalton/2013/build/basis/6-31G"

  Info about the basis set file: your basis has no documentation.
  Basis set: 6-31G                                                                           


                      SYMADD: Requested addition of symmetry
                      --------------------------------------

 Symmetry test threshold:  5.00E-06

 - molecule centered at center of mass and rotated so
   principal axes of inertia are along coordinate axes.

 Symmetry class found: C(1)           

 Symmetry Independent Centres             
 ----------------------------
       8 :     -2.21606298     1.18803262    -1.50610488  Isotope  1
       8 :     -1.71797481    -3.73049596    -0.90241125  Isotope  1
       8 :     -3.25331463     1.47206321     2.78214666  Isotope  1
       8 :      1.87603734    -5.37915584     0.50024700  Isotope  1
       6 :      0.32430660     1.27535745    -0.79363446  Isotope  1
       6 :      1.70754279    -0.89198436    -0.15982103  Isotope  1
       6 :      0.69113550    -3.50751709    -0.13087433  Isotope  1
       6 :      1.47378086     3.65888898    -0.84259108  Isotope  1
       6 :     -3.84221474     1.25722491     0.55557470  Isotope  1
       6 :      4.26652631    -0.60699384     0.48896786  Isotope  1
       6 :      4.01559173     3.90427012    -0.19888219  Isotope  1
       6 :      5.41067333     1.77481273     0.47284453  Isotope  1
       6 :     -6.50827814     1.04323496    -0.37924123  Isotope  1
       1 :      0.38785634     5.32076737    -1.36662263  Isotope  1
       1 :      5.39177876    -2.25019128     1.00973982  Isotope  1
       1 :     -2.03985745    -5.54975776    -0.75852913  Isotope  1
       1 :     -6.75390322    -0.73462283    -1.40117077  Isotope  1
       1 :      4.90751269     5.75485257    -0.21628123  Isotope  1
       1 :     -6.95619879     2.65074900    -1.59455093  Isotope  1
       1 :      7.39248591     1.96139625     0.98336117  Isotope  1
       1 :     -7.80159392     1.05514959     1.23484803  Isotope  1

 No symmetry elements were found.


                         SYMGRP: Point group information
                         -------------------------------

Full point group is: C(1)           
Represented as:      C1 


                                 Isotopic Masses
                                 ---------------

                           C          12.000000
                           C          12.000000
                           C          12.000000
                           C          12.000000
                           C          12.000000
                           C          12.000000
                           C          12.000000
                           O          15.994915
                           O          15.994915
                           O          15.994915
                           C          12.000000
                           C          12.000000
                           O          15.994915
                           H           1.007825
                           H           1.007825
                           H           1.007825
                           H           1.007825
                           H           1.007825
                           H           1.007825
                           H           1.007825
                           H           1.007825

                       Total mass:   180.042260 amu
                       Natural abundance:  89.551 %

 Center-of-mass coordinates (a.u.):    0.000000   -0.000000    0.000000


  Atoms and basis sets
  --------------------

  Number of atom types :    5
  Total number of atoms:   21

  Basis set used is "6-31G" from the basis set library.

  label    atoms   charge   prim   cont     basis
  ----------------------------------------------------------------------
  C           7    6.0000    22     9      [10s4p|3s2p]                                       
  O           3    8.0000    22     9      [10s4p|3s2p]                                       
  C           2    6.0000    22     9      [10s4p|3s2p]                                       
  O           1    8.0000    22     9      [10s4p|3s2p]                                       
  H           8    1.0000     4     2      [4s|2s]                                            
  ----------------------------------------------------------------------
  total:     21   94.0000   318   133
  ----------------------------------------------------------------------

  Threshold for neglecting AO integrals:  1.00D-12


  Cartesian Coordinates (a.u.)
  ----------------------------

  Total number of coordinates:   63
  C       :     1  x   4.2665263107    2  y  -0.6069938420    3  z   0.4889678577
  C       :     4  x   1.4737808630    5  y   3.6588889806    6  z  -0.8425910798
  C       :     7  x   5.4106733253    8  y   1.7748127338    9  z   0.4728445331
  C       :    10  x   4.0155917335   11  y   3.9042701198   12  z  -0.1988821875
  C       :    13  x  -6.5082781445   14  y   1.0432349636   15  z  -0.3792412316
  C       :    16  x   1.7075427918   17  y  -0.8919843627   18  z  -0.1598210306
  C       :    19  x   0.3243065981   20  y   1.2753574527   21  z  -0.7936344617
  O       :    22  x   1.8760373357   23  y  -5.3791558424   24  z   0.5002469999
  O       :    25  x  -3.2533146343   26  y   1.4720632123   27  z   2.7821466649
  O       :    28  x  -1.7179748138   29  y  -3.7304959580   30  z  -0.9024112466
  C       :    31  x   0.6911354953   32  y  -3.5075170905   33  z  -0.1308743322
  C       :    34  x  -3.8422147388   35  y   1.2572249077   36  z   0.5555747033
  O       :    37  x  -2.2160629754   38  y   1.1880326165   39  z  -1.5061048794
  H       :    40  x  -2.0398574459   41  y  -5.5497577623   42  z  -0.7585291289
  H       :    43  x   5.3917787591   44  y  -2.2501912756   45  z   1.0097398185
  H       :    46  x   0.3878563422   47  y   5.3207673728   48  z  -1.3666226328
  H       :    49  x   7.3924859122   50  y   1.9613962504   51  z   0.9833611715
  H       :    52  x   4.9075126937   53  y   5.7548525658   54  z  -0.2162812284
  H       :    55  x  -6.7539032240   56  y  -0.7346228297   57  z  -1.4011707707
  H       :    58  x  -7.8015939179   59  y   1.0551495902   60  z   1.2348480336
  H       :    61  x  -6.9561987920   62  y   2.6507490020   63  z  -1.5945509303

  Max    interatomic separation is    8.0557 Angstrom (   15.2232 Bohr)
  between atoms   20 and   17, "H     " and "H     ".

  Min HX interatomic separation is    0.9806 Angstrom (    1.8531 Bohr)

  Min YX interatomic separation is    1.2189 Angstrom (    2.3033 Bohr)


  Bond distances (Angstrom):
  --------------------------

                  atom 1     atom 2       distance
                  ------     ------       --------
  bond distance:  C          C            1.398304
  bond distance:  C          C            1.393594
  bond distance:  C          C            1.393260
  bond distance:  C          C            1.405117
  bond distance:  C          C            1.400562
  bond distance:  C          C            1.401314
  bond distance:  C          C            1.484994
  bond distance:  C          O            1.218871
  bond distance:  C          O            1.343819
  bond distance:  C          C            1.499316
  bond distance:  C          O            1.224057
  bond distance:  O          C            1.396939
  bond distance:  O          C            1.390003
  bond distance:  H          O            0.980625
  bond distance:  H          C            1.089321
  bond distance:  H          C            1.086513
  bond distance:  H          C            1.087459
  bond distance:  H          C            1.087132
  bond distance:  H          C            1.092908
  bond distance:  H          C            1.094526
  bond distance:  H          C            1.092429


  Bond angles (degrees):
  ----------------------

                  atom 1     atom 2     atom 3         angle
                  ------     ------     ------         -----
  bond angle:     C          C          C            120.833
  bond angle:     C          C          H            118.971
  bond angle:     C          C          H            120.195
  bond angle:     C          C          C            119.906
  bond angle:     C          C          H            119.831
  bond angle:     C          C          H            120.262
  bond angle:     C          C          C            120.076
  bond angle:     C          C          H            119.861
  bond angle:     C          C          H            120.063
  bond angle:     C          C          C            119.896
  bond angle:     C          C          H            120.060
  bond angle:     C          C          H            120.045
  bond angle:     C          C          H            109.888
  bond angle:     C          C          H            109.297
  bond angle:     C          C          H            109.852
  bond angle:     H          C          H            108.465
  bond angle:     H          C          H            110.684
  bond angle:     H          C          H            108.618
  bond angle:     C          C          C            118.297
  bond angle:     C          C          C            116.524
  bond angle:     C          C          C            125.177
  bond angle:     C          C          C            120.974
  bond angle:     C          C          O            116.279
  bond angle:     C          C          O            122.697
  bond angle:     C          O          H            103.144
  bond angle:     C          C          O            125.020
  bond angle:     C          C          O            114.981
  bond angle:     O          C          O            119.995
  bond angle:     C          C          O            124.345
  bond angle:     C          C          O            108.759
  bond angle:     O          C          O            126.895
  bond angle:     C          O          C            112.523




 Principal moments of inertia (u*A**2) and principal axes
 --------------------------------------------------------

   IA     465.853973          1.000000   -0.000000    0.000000
   IB     658.879768          0.000000    1.000000    0.000000
   IC    1003.900338         -0.000000   -0.000000    1.000000


 Rotational constants
 --------------------

               A                   B                   C

           1084.8443            767.0277            503.4155 MHz
            0.036187            0.025585            0.016792 cm-1


@  Nuclear repulsion energy :  782.661165278018 Hartree


                     .---------------------------------------.
                     | Starting in Integral Section (HERMIT) |
                     `---------------------------------------'



    *************************************************************************
    ****************** Output from HERMIT input processing ******************
    *************************************************************************



     ************************************************************************
     ************************** Output from HERINT **************************
     ************************************************************************


 Threshold for neglecting two-electron integrals:  1.00D-12
 Number of two-electron integrals written:    29127422 ( 73.4% )
 Megabytes written:                            333.524

 >>>  Time used in TWOINT     is   6.33 seconds
 >>>> Total CPU  time used in HERMIT:   6.51 seconds
 >>>> Total wall time used in HERMIT:   6.51 seconds


                        .----------------------------------.
                        | End of Integral Section (HERMIT) |
                        `----------------------------------'



                   .--------------------------------------------.
                   | Starting in Wave Function Section (SIRIUS) |
                   `--------------------------------------------'


 *** Output from Huckel module :

     Using EWMO model:          T
     Using EHT  model:          F
     Number of Huckel orbitals each symmetry:   73

 EWMO - Energy Weighted Maximum Overlap - is a Huckel type method,
        which normally is better than Extended Huckel Theory.
 Reference: Linderberg and Ohrn, Propagators in Quantum Chemistry (Wiley, 1973)

 Huckel EWMO eigenvalues for symmetry :  1
          -20.686299     -20.685440     -20.684293     -20.683719     -11.364887
          -11.357262     -11.355387     -11.353941     -11.351727     -11.349007
          -11.347607     -11.347253     -11.344149      -2.048467      -1.861079
           -1.851534      -1.569434      -1.481733      -1.424955      -1.386151
           -1.252068      -1.052620      -0.969028      -0.920476      -0.868620
           -0.841874      -0.787271      -0.756904      -0.748634      -0.728702
           -0.697590      -0.666649      -0.642210      -0.610388      -0.596123
           -0.590881      -0.584465      -0.573330      -0.550212      -0.534161
           -0.488981      -0.477522      -0.476171      -0.467060      -0.440136
           -0.421080      -0.385817      -0.289254      -0.270695      -0.244308
           -0.222468      -0.217811      -0.205328      -0.175564      -0.172115
           -0.161438      -0.155184      -0.151004      -0.132114      -0.123593
           -0.121971      -0.121928      -0.120788      -0.117763      -0.116079
           -0.115549      -0.112802      -0.102558      -0.097709      -0.095917
           -0.094684      -0.082601      -0.075879

 **********************************************************************
 *SIRIUS* a direct, restricted step, second order MCSCF program       *
 **********************************************************************

 
     Date and time (Linux)  : Wed Dec 18 23:33:37 2013
     Host name              : gold                                    

 Title lines from ".mol" input file:
      Title                                                                  
      Generated by the Dalton Input File Plugin for Avogadro                 

 Print level on unit LUPRI =   2 is   0
 Print level on unit LUW4  =   2 is   5

@    Restricted, closed shell Kohn-Sham DFT calculation.

 Initial molecular orbitals are obtained according to
 ".MOSTART EWMO  " input option

     Wave function specification
     ============================
@    For the wave function of type :      >>> KS-DFT <<<
@    Number of closed shell electrons          94
@    Number of electrons in active shells       0
@    Total charge of the molecule               0

@    Spin multiplicity and 2 M_S                1         0
     Total number of symmetries                 1
@    Reference state symmetry                   1
 
     This is a DFT calculation of type: B3LYP
 Weighted mixed functional:
               HF exchange:    0.20000
                       VWN:    0.19000
                       LYP:    0.81000
                     Becke:    0.72000
                    Slater:    0.80000

     Orbital specifications
     ======================
     Abelian symmetry species          All |    1
                                       --- |  ---
@    Occupied SCF orbitals              47 |   47
     Secondary orbitals                 86 |   86
     Total number of orbitals          133 |  133
     Number of basis functions         133 |  133

     Optimization information
     ========================
@    Number of configurations                 1
@    Number of orbital rotations           4042
     ------------------------------------------
@    Total number of variables             4043

     Maximum number of Fock   iterations      0
     Maximum number of DIIS   iterations     60
     Maximum number of QC-SCF iterations     60
     Threshold for SCF convergence     1.00D-05
 
     This is a DFT calculation of type: B3LYP
 Weighted mixed functional:
               HF exchange:    0.20000
                       VWN:    0.19000
                       LYP:    0.81000
                     Becke:    0.72000
                    Slater:    0.80000


 >>>>> DIIS optimization of Hartree-Fock <<<<<

 C1-DIIS algorithm; max error vectors =    5

 Iter      Total energy        Error norm    Delta(E)  DIIS dim.
 -----------------------------------------------------------------------------
      K-S energy, electrons, error :    -68.599105391729  93.9999295886   -7.04D-05
@  1    -645.866304631        5.68674D+00   -6.46D+02    1
      Virial theorem: -V/T =      2.007442
@      MULPOP C       0.14; C       0.05; C       0.15; C       0.27; C       0.30; C       0.38; C       0.66; O      -1.02; O      -1.06; O      -0.57; 
@             C       0.97; C       1.35; O      -0.75; H       0.25; H      -0.22; H      -0.22; H      -0.20; H      -0.21; H      -0.08; H      -0.12; 
@             H      -0.08; 
 -----------------------------------------------------------------------------
      K-S energy, electrons, error :    -69.583385933090  93.9999803418   -1.97D-05
@  2    -638.144293522        1.08693D+01    7.72D+00    2
      Virial theorem: -V/T =      1.988635
@      MULPOP C      -1.10; C      -0.97; C      -0.74; C      -0.98; C      -1.18; C      -1.01; C      -1.20; O       3.08; O       2.82; O      -0.17; 
@             C      -1.22; C      -1.43; O       0.64; H       0.44; H       0.47; H       0.41; H       0.42; H       0.43; H       0.42; H       0.45; 
@             H       0.41; 
 -----------------------------------------------------------------------------
      K-S energy, electrons, error :    -70.047840874569  93.9999647361   -3.53D-05
@  3    -646.948321586        4.33113D+00   -8.80D+00    3
      Virial theorem: -V/T =      1.993516
@      MULPOP C       0.02; C       0.23; C       0.03; C       0.27; C      -0.73; C       0.67; C       0.29; O      -1.18; O      -1.04; O      -0.38; 
@             C      -0.14; C       0.37; O       0.01; H       0.36; H       0.08; H       0.07; H       0.10; H       0.10; H       0.30; H       0.24; 
@             H       0.31; 
 -----------------------------------------------------------------------------
      K-S energy, electrons, error :    -69.596152791290  93.9999622384   -3.78D-05
@  4    -648.046224444        1.30669D+00   -1.10D+00    4
      Virial theorem: -V/T =      2.001652
@      MULPOP C      -0.04; C      -0.06; C      -0.06; C      -0.20; C      -0.47; C       0.30; C       0.23; O      -0.67; O      -0.56; O      -0.61; 
@             C       0.69; C       0.76; O      -0.78; H       0.37; H       0.14; H       0.14; H       0.13; H       0.16; H       0.20; H       0.17; 
@             H       0.19; 
 -----------------------------------------------------------------------------
      K-S energy, electrons, error :    -69.213595121610  93.9999625563   -3.74D-05
@  5    -648.061190989        1.15430D+00   -1.50D-02    5
      Virial theorem: -V/T =      2.006601
@      MULPOP C      -0.22; C      -0.03; C      -0.12; C       0.07; C      -0.39; C       0.05; C       0.33; O      -0.45; O      -0.59; O      -0.50; 
@             C       0.32; C       0.49; O      -0.25; H       0.38; H       0.16; H       0.09; H       0.11; H       0.08; H       0.16; H       0.13; 
@             H       0.16; 
 -----------------------------------------------------------------------------
      K-S energy, electrons, error :    -69.378443229363  93.9999621743   -3.78D-05
@  6    -648.129429752        3.64110D-01   -6.82D-02    5
      Virial theorem: -V/T =      2.004457
@      MULPOP C      -0.10; C      -0.09; C      -0.10; C      -0.09; C      -0.48; C       0.20; C       0.20; O      -0.46; O      -0.33; O      -0.52; 
@             C       0.36; C       0.44; O      -0.55; H       0.39; H       0.16; H       0.14; H       0.13; H       0.14; H       0.19; H       0.18; 
@             H       0.18; 
 -----------------------------------------------------------------------------
      K-S energy, electrons, error :    -69.403940185451  93.9999625951   -3.74D-05
@  7    -648.135821248        1.72154D-01   -6.39D-03    5
      Virial theorem: -V/T =      2.004188
@      MULPOP C      -0.16; C      -0.09; C      -0.12; C      -0.13; C      -0.47; C       0.14; C       0.23; O      -0.39; O      -0.44; O      -0.54; 
@             C       0.38; C       0.53; O      -0.50; H       0.39; H       0.18; H       0.15; H       0.15; H       0.15; H       0.19; H       0.18; 
@             H       0.18; 
 -----------------------------------------------------------------------------
      K-S energy, electrons, error :    -69.368377447492  93.9999624304   -3.76D-05
@  8    -648.137149981        5.92843D-02   -1.33D-03    5
      Virial theorem: -V/T =      2.004658
@      MULPOP C      -0.17; C      -0.10; C      -0.12; C      -0.11; C      -0.45; C       0.11; C       0.23; O      -0.41; O      -0.38; O      -0.53; 
@             C       0.41; C       0.49; O      -0.51; H       0.38; H       0.18; H       0.15; H       0.14; H       0.14; H       0.19; H       0.17; 
@             H       0.17; 
 -----------------------------------------------------------------------------
      K-S energy, electrons, error :    -69.362080846458  93.9999622675   -3.77D-05
@  9    -648.137218794        4.83687D-02   -6.88D-05    5
      Virial theorem: -V/T =      2.004733
@      MULPOP C      -0.15; C      -0.10; C      -0.12; C      -0.12; C      -0.45; C       0.14; C       0.22; O      -0.38; O      -0.39; O      -0.54; 
@             C       0.39; C       0.51; O      -0.51; H       0.39; H       0.17; H       0.15; H       0.14; H       0.14; H       0.18; H       0.17; 
@             H       0.17; 
 -----------------------------------------------------------------------------
      K-S energy, electrons, error :    -69.369299139986  93.9999623624   -3.76D-05
@ 10    -648.137355725        7.42802D-03   -1.37D-04    5
      Virial theorem: -V/T =      2.004643
@      MULPOP C      -0.16; C      -0.10; C      -0.12; C      -0.12; C      -0.46; C       0.13; C       0.23; O      -0.39; O      -0.39; O      -0.54; 
@             C       0.40; C       0.50; O      -0.51; H       0.39; H       0.18; H       0.15; H       0.14; H       0.14; H       0.19; H       0.17; 
@             H       0.18; 
 -----------------------------------------------------------------------------
      K-S energy, electrons, error :    -69.370512054389  93.9999623588   -3.76D-05
@ 11    -648.137358516        3.22944D-03   -2.79D-06    5
      Virial theorem: -V/T =      2.004626
@      MULPOP C      -0.16; C      -0.10; C      -0.12; C      -0.12; C      -0.46; C       0.13; C       0.23; O      -0.39; O      -0.39; O      -0.54; 
@             C       0.40; C       0.50; O      -0.51; H       0.39; H       0.18; H       0.15; H       0.14; H       0.14; H       0.19; H       0.17; 
@             H       0.17; 
 -----------------------------------------------------------------------------
      K-S energy, electrons, error :    -69.369725517616  93.9999623633   -3.76D-05
@ 12    -648.137358711        2.56578D-03   -1.95D-07    5
      Virial theorem: -V/T =      2.004636
@      MULPOP C      -0.16; C      -0.10; C      -0.12; C      -0.12; C      -0.46; C       0.13; C       0.23; O      -0.40; O      -0.39; O      -0.54; 
@             C       0.40; C       0.50; O      -0.51; H       0.39; H       0.18; H       0.15; H       0.14; H       0.14; H       0.19; H       0.17; 
@             H       0.17; 
 -----------------------------------------------------------------------------
      K-S energy, electrons, error :    -69.369961762829  93.9999623617   -3.76D-05
@ 13    -648.137358914        1.87242D-03   -2.03D-07    5
      Virial theorem: -V/T =      2.004633
@      MULPOP C      -0.16; C      -0.10; C      -0.12; C      -0.12; C      -0.46; C       0.13; C       0.23; O      -0.39; O      -0.39; O      -0.54; 
@             C       0.40; C       0.50; O      -0.51; H       0.39; H       0.18; H       0.15; H       0.14; H       0.14; H       0.19; H       0.17; 
@             H       0.17; 
 -----------------------------------------------------------------------------
      K-S energy, electrons, error :    -69.369909052991  93.9999623610   -3.76D-05
@ 14    -648.137359105        2.94302D-04   -1.91D-07    5
      Virial theorem: -V/T =      2.004633
@      MULPOP C      -0.16; C      -0.10; C      -0.12; C      -0.12; C      -0.46; C       0.13; C       0.23; O      -0.39; O      -0.39; O      -0.54; 
@             C       0.40; C       0.50; O      -0.51; H       0.39; H       0.18; H       0.15; H       0.14; H       0.14; H       0.19; H       0.17; 
@             H       0.17; 
 -----------------------------------------------------------------------------
      K-S energy, electrons, error :    -69.369972546996  93.9999623615   -3.76D-05
@ 15    -648.137359109        9.57326D-05   -3.93D-09    5
      Virial theorem: -V/T =      2.004633
@      MULPOP C      -0.16; C      -0.10; C      -0.12; C      -0.12; C      -0.46; C       0.13; C       0.23; O      -0.39; O      -0.39; O      -0.54; 
@             C       0.40; C       0.50; O      -0.51; H       0.39; H       0.18; H       0.15; H       0.14; H       0.14; H       0.19; H       0.17; 
@             H       0.17; 
 -----------------------------------------------------------------------------
      K-S energy, electrons, error :    -69.369962103500  93.9999623612   -3.76D-05
@ 16    -648.137359109        7.70459D-05   -1.94D-10    5
      Virial theorem: -V/T =      2.004633
@      MULPOP C      -0.16; C      -0.10; C      -0.12; C      -0.12; C      -0.46; C       0.13; C       0.23; O      -0.39; O      -0.39; O      -0.54; 
@             C       0.40; C       0.50; O      -0.51; H       0.39; H       0.18; H       0.15; H       0.14; H       0.14; H       0.19; H       0.17; 
@             H       0.17; 
 -----------------------------------------------------------------------------
      K-S energy, electrons, error :    -69.369966563556  93.9999623613   -3.76D-05
@ 17    -648.137359109        2.40191D-05   -2.82D-10    5
      Virial theorem: -V/T =      2.004633
@      MULPOP C      -0.16; C      -0.10; C      -0.12; C      -0.12; C      -0.46; C       0.13; C       0.23; O      -0.39; O      -0.39; O      -0.54; 
@             C       0.40; C       0.50; O      -0.51; H       0.39; H       0.18; H       0.15; H       0.14; H       0.14; H       0.19; H       0.17; 
@             H       0.17; 
 -----------------------------------------------------------------------------
      K-S energy, electrons, error :    -69.369961423433  93.9999623613   -3.76D-05
@ 18    -648.137359109        9.12263D-06   -2.52D-11    5

@ *** DIIS converged in  18 iterations !
@     Converged SCF energy, gradient:   -648.137359109270    9.12D-06
    - total time used in SIRFCK :              0.00 seconds


 *** SCF orbital energy analysis ***

 Only the five lowest virtual orbital energies printed in each symmetry.

 Number of electrons :   94
 Orbital occupations :   47

 Sym       Kohn-Sham orbital energies

  1    -19.20442610   -19.20083996   -19.15044033   -19.14680608   -10.33565702
       -10.33210406   -10.26961179   -10.22129552   -10.20836740   -10.20737660
       -10.20504708   -10.20150155   -10.18980237    -1.14224261    -1.12644172
        -1.04615881    -1.03773675    -0.88000951    -0.79048054    -0.78131029
        -0.74470782    -0.68010239    -0.64506125    -0.61069225    -0.58761488
        -0.52956451    -0.50994894    -0.49424826    -0.48964113    -0.47650306
        -0.47221362    -0.46219740    -0.45745962    -0.44826095    -0.41016749
        -0.40695885    -0.40353459    -0.39288680    -0.37887630    -0.36870909
        -0.36508536    -0.32388579    -0.31235209    -0.28737724    -0.28058825
        -0.27202918    -0.26202277    -0.05662257    -0.01606255    -0.00516156
         0.04677387     0.06716894

    E(LUMO) :    -0.05662257 au (symmetry 1)
  - E(HOMO) :    -0.26202277 au (symmetry 1)
  ------------------------------------------
    gap     :     0.20540020 au

 >>> Writing SIRIFC interface file <<<

 >>>> CPU and wall time for SCF :      75.562      76.186


                       .-----------------------------------.
                       | >>> Final results from SIRIUS <<< |
                       `-----------------------------------'


@    Spin multiplicity:           1
@    Spatial symmetry:            1
@    Total charge of molecule:    0

@    Final DFT energy:           -648.137359109270                 
@    Nuclear repulsion:           782.661165278018
@    Electronic energy:         -1430.798524387288

@    Final gradient norm:           0.000009122627

 
     Date and time (Linux)  : Wed Dec 18 23:34:53 2013
     Host name              : gold                                    

 (Only coefficients >0.0100 are printed.)

 Molecular orbitals for symmetry species  1
 ------------------------------------------

    Orbital        43       44       45       46       47       48       49
   2 C   :1s    -0.0132  -0.0130  -0.0023   0.0015   0.0024   0.0014  -0.0043
   3 C   :1s    -0.0658  -0.0328   0.0058   0.0081   0.0128   0.0453  -0.0298
   4 C   :2px    0.0321  -0.0327   0.0366  -0.0534  -0.0659   0.0489   0.0849
   5 C   :2py   -0.0553   0.0265  -0.0112   0.0298   0.0303  -0.0278  -0.0385
   6 C   :2pz    0.0085  -0.0060  -0.0390   0.2048   0.2365  -0.2075  -0.2949
   7 C   :2px    0.0399  -0.0770   0.0271  -0.0366  -0.0498   0.0432   0.1191
   8 C   :2py   -0.0583  -0.0246  -0.0007   0.0225   0.0258  -0.0237  -0.0648
   9 C   :2pz    0.0110  -0.0118  -0.0254   0.1310   0.1703  -0.2589  -0.3851
  10 C   :1s     0.0203   0.0049  -0.0056  -0.0027   0.0011  -0.0010   0.0018
  11 C   :1s    -0.0388  -0.0111   0.0197   0.0043  -0.0004   0.0024  -0.0057
  12 C   :1s    -0.1238   0.0176   0.0178   0.0210  -0.0240  -0.0020  -0.0077
  13 C   :2px    0.0905   0.0064  -0.0404   0.0476   0.0705   0.0223   0.0828
  14 C   :2py    0.1112   0.0412  -0.0195  -0.0452  -0.0299  -0.0148  -0.0364
  15 C   :2pz   -0.0135  -0.0157   0.0406  -0.2154  -0.2484  -0.0865  -0.3021
  16 C   :2px    0.0212   0.0194  -0.0095   0.0376   0.0427   0.0126   0.1366
  17 C   :2py    0.0419   0.0057  -0.0167  -0.0345  -0.0053  -0.0083  -0.0606
  18 C   :2pz   -0.0237  -0.0063   0.0256  -0.1486  -0.1879  -0.1152  -0.3957
  21 C   :1s     0.0233   0.0503  -0.0123  -0.0032  -0.0086  -0.0110   0.0047
  22 C   :2px    0.0161   0.0125   0.0060   0.0233  -0.0811   0.0233  -0.0753
  23 C   :2py    0.0445   0.0043  -0.0076  -0.0177   0.0426  -0.0114   0.0397
  24 C   :2pz   -0.0391  -0.0117  -0.0513  -0.0915   0.2996  -0.0863   0.2784
  25 C   :2px   -0.0001   0.0047   0.0078   0.0171  -0.0530   0.0404  -0.1062
  26 C   :2py    0.0101  -0.0176  -0.0021  -0.0104   0.0298  -0.0131   0.0492
  27 C   :2pz   -0.0259  -0.0070  -0.0359  -0.0592   0.2165  -0.1054   0.3684
  28 C   :1s    -0.0101   0.0052   0.0014   0.0007  -0.0010   0.0001  -0.0002
  29 C   :1s     0.0209  -0.0101  -0.0049  -0.0028   0.0027   0.0006  -0.0004
  30 C   :1s     0.0570  -0.0358  -0.0057  -0.0022   0.0151   0.0136  -0.0172
  31 C   :2px   -0.0412   0.0079   0.0247   0.0859  -0.0193  -0.0750  -0.0055
  32 C   :2py   -0.0633   0.0038   0.0008  -0.0378   0.0050   0.0388   0.0032
  33 C   :2pz   -0.0469  -0.0218  -0.0031  -0.2968   0.0533   0.2744   0.0230
  34 C   :2px   -0.0340   0.0150   0.0095   0.0606  -0.0148  -0.0915  -0.0032
  35 C   :2py   -0.0241   0.0107  -0.0047  -0.0283  -0.0005   0.0415   0.0045
  36 C   :2pz   -0.0319  -0.0127  -0.0031  -0.2100   0.0387   0.3217   0.0343
  37 C   :1s    -0.0004   0.0032   0.0267   0.0006   0.0042   0.0017  -0.0050
  38 C   :1s     0.0028  -0.0051  -0.0435  -0.0016  -0.0056  -0.0029   0.0056
  39 C   :1s    -0.0074  -0.0248  -0.2353  -0.0065  -0.0296  -0.0001   0.0535
  40 C   :2px    0.0117  -0.0245  -0.1585   0.0001  -0.0364  -0.0141   0.0247
  41 C   :2py    0.0042  -0.0128  -0.0150  -0.0026  -0.0060  -0.0054   0.0042
  42 C   :2pz   -0.0049  -0.0322  -0.1284  -0.0014  -0.0189  -0.0072   0.0114
  43 C   :2px    0.0092  -0.0246  -0.1139   0.0024  -0.0368  -0.0264   0.0560
  44 C   :2py   -0.0181  -0.0103  -0.0111   0.0072  -0.0034   0.0120  -0.0173
  45 C   :2pz    0.0029  -0.0333  -0.1089  -0.0033  -0.0097  -0.0078   0.0115
  46 C   :1s    -0.0175   0.0253  -0.0074  -0.0005  -0.0008   0.0006  -0.0019
  47 C   :1s     0.0347  -0.0367   0.0230   0.0029   0.0029   0.0011   0.0041
  48 C   :1s     0.1114  -0.2740   0.0515   0.0019  -0.0074  -0.0383   0.0616
  49 C   :2px   -0.0759   0.0392  -0.0317  -0.0862   0.0205  -0.0577  -0.0100
  50 C   :2py    0.1093   0.1555  -0.0206   0.0215  -0.0086   0.0263   0.0092
  51 C   :2pz   -0.0071   0.0134  -0.0027   0.3262  -0.0769   0.2277   0.0089
  52 C   :2px   -0.0034   0.0131  -0.0062  -0.0687   0.0062  -0.1124   0.0018
  53 C   :2py    0.1338   0.1996  -0.0053   0.0159  -0.0308   0.0094   0.0808
  54 C   :2pz    0.0075  -0.0097  -0.0111   0.2374  -0.0640   0.2884   0.0111
  56 C   :1s    -0.0007   0.0222   0.0086  -0.0022   0.0059   0.0005  -0.0009
  57 C   :1s    -0.0548  -0.0215  -0.0521  -0.0056   0.0082  -0.0114  -0.0258
  58 C   :2px   -0.0128   0.0256   0.0208  -0.0165   0.0588   0.0505  -0.0719
  59 C   :2py   -0.1236  -0.0613   0.0299   0.0263  -0.0461  -0.0292   0.0425
  60 C   :2pz    0.0442   0.0323   0.0930   0.0898  -0.3085  -0.2274   0.3223
  61 C   :2px   -0.0437  -0.0229  -0.0184  -0.0193   0.0862   0.1013  -0.1638
  62 C   :2py    0.0245  -0.0394   0.0151   0.0036  -0.0190  -0.0374   0.0971
  63 C   :2pz    0.0034   0.0092   0.0349   0.0502  -0.1807  -0.2285   0.3436
  65 O   :1s    -0.0029   0.0107  -0.0023  -0.0012  -0.0000  -0.0004   0.0006
  66 O   :1s     0.0175  -0.0302   0.0059  -0.0033   0.0050  -0.0052  -0.0150
  67 O   :2px   -0.0374   0.4792  -0.0991   0.0349  -0.0164   0.0836  -0.0072
  68 O   :2py    0.0468   0.3105  -0.0627  -0.0525   0.0010  -0.0361   0.0031
  69 O   :2pz   -0.0017   0.1005  -0.0160  -0.2044   0.0183  -0.2596   0.0290
  70 O   :2px   -0.0243   0.3174  -0.0691   0.0274  -0.0125   0.0824  -0.0046
  71 O   :2py    0.0328   0.1910  -0.0403  -0.0375   0.0029  -0.0355  -0.0045
  72 O   :2pz   -0.0019   0.0671  -0.0111  -0.1506   0.0154  -0.2538   0.0206
  74 O   :1s    -0.0003   0.0038   0.0100  -0.0051   0.0161   0.0028  -0.0053
  75 O   :1s    -0.0055  -0.0033  -0.0320  -0.0033   0.0020  -0.0032   0.0076
  76 O   :2px    0.0063  -0.1183  -0.5682  -0.0194  -0.0592  -0.0019  -0.0106
  77 O   :2py   -0.3579  -0.0089  -0.0134   0.0443  -0.0100   0.0017   0.1346
  78 O   :2pz    0.0405   0.0203   0.1016  -0.0137   0.0540   0.0102  -0.0258
  79 O   :2px    0.0065  -0.0765  -0.3706  -0.0111  -0.0460  -0.0036  -0.0086
  80 O   :2py   -0.2599  -0.0052  -0.0059   0.0307  -0.0092  -0.0063   0.1304
  81 O   :2pz    0.0305   0.0141   0.0787  -0.0095   0.0408   0.0132  -0.0317
  82 O   :1s    -0.0167  -0.0091   0.0014   0.0012  -0.0017  -0.0013   0.0005
  83 O   :1s     0.0425   0.0052  -0.0011  -0.0025   0.0043   0.0029  -0.0017
  84 O   :1s     0.0519   0.2037  -0.0360  -0.0121   0.0060   0.0134   0.0003
  85 O   :2px   -0.0294   0.2277  -0.0503  -0.0036  -0.0157   0.0543   0.0042
  86 O   :2py    0.0669  -0.1081   0.0225   0.0016   0.0116  -0.0200  -0.0029
  87 O   :2pz   -0.0749   0.0931  -0.0213  -0.0231   0.0192  -0.1640  -0.0120
  88 O   :2px   -0.0249   0.2129  -0.0457  -0.0050  -0.0095   0.0554  -0.0024
  89 O   :2py    0.0278  -0.0846   0.0223   0.0028   0.0050  -0.0234  -0.0020
  90 O   :2pz   -0.0516   0.0848  -0.0167  -0.0173   0.0149  -0.1549   0.0015
  92 C   :1s    -0.0236  -0.0205   0.0106   0.0041  -0.0005  -0.0011   0.0011
  93 C   :1s     0.0174   0.0261   0.0190   0.0060  -0.0222  -0.0182   0.0552
  94 C   :2px    0.0053  -0.0219   0.0066   0.0027   0.0048  -0.1015   0.0018
  95 C   :2py   -0.0562  -0.0392   0.0180   0.0080  -0.0041   0.0387   0.0010
  96 C   :2pz    0.0113  -0.0030   0.0026  -0.0047  -0.0097   0.3122  -0.0098
  97 C   :2px   -0.0147   0.2194  -0.0305  -0.0019  -0.0061  -0.0719   0.0272
  98 C   :2py    0.0444   0.0957  -0.0034  -0.0087  -0.0043   0.0193   0.0081
  99 C   :2pz   -0.0058   0.0585  -0.0099  -0.0146   0.0005   0.2403  -0.0183
 100 C   :1s     0.0013   0.0043   0.0207   0.0046  -0.0140  -0.0134   0.0211
 101 C   :1s    -0.0077  -0.0036  -0.0480  -0.0128   0.0403   0.0375  -0.0474
 102 C   :1s     0.0048  -0.0365  -0.0830  -0.0151   0.0494   0.0766  -0.1741
 103 C   :2px   -0.0119   0.0061   0.0519  -0.0180   0.0770   0.0406  -0.0530
 104 C   :2py   -0.0750  -0.0034   0.0071   0.0165   0.0062   0.0240  -0.1577
 105 C   :2pz    0.0122   0.0146   0.0648   0.0202  -0.0668  -0.0445   0.0741
 106 C   :2px   -0.0008  -0.0442  -0.1680  -0.0092   0.0052   0.0319  -0.0244
 107 C   :2py   -0.0386   0.0023  -0.0017   0.0003   0.0013   0.0100  -0.1586
 108 C   :2pz    0.0080   0.0320   0.1252   0.0030   0.0074  -0.0197   0.0603
 109 O   :1s     0.0003  -0.0075  -0.0177  -0.0060   0.0189   0.0095  -0.0143
 110 O   :1s    -0.0014   0.0149   0.0206   0.0133  -0.0458  -0.0206   0.0300
 111 O   :1s    -0.0059   0.0579   0.2187   0.0253  -0.0507  -0.0498   0.0901
 112 O   :2px    0.0080  -0.0029  -0.0825  -0.0105   0.0151   0.0120  -0.0207
 113 O   :2py    0.4917  -0.0166  -0.0024  -0.0395   0.0488   0.0035   0.0532
 114 O   :2pz   -0.0223   0.0433   0.1825  -0.0396   0.1826   0.0508  -0.0574
 115 O   :2px   -0.0030  -0.0141  -0.0975  -0.0099   0.0182   0.0228  -0.0441
 116 O   :2py    0.3634  -0.0033  -0.0018  -0.0291   0.0375   0.0061   0.0464
 117 O   :2pz   -0.0179   0.0480   0.1909  -0.0294   0.1431   0.0437  -0.0492
 118 H   :1s    -0.0386   0.0040   0.0002   0.0009  -0.0039  -0.0031  -0.0013
 119 H   :1s    -0.0307  -0.0621   0.0185   0.0062  -0.0033  -0.0085  -0.0002
 120 H   :1s     0.0441  -0.0111   0.0093  -0.0023   0.0008  -0.0015   0.0021
 121 H   :1s     0.0297   0.0440  -0.0005  -0.0041  -0.0001   0.0041   0.0026
 122 H   :1s     0.0188   0.0253   0.0069  -0.0029  -0.0013  -0.0021   0.0018
 123 H   :1s     0.0443   0.0337   0.0099  -0.0023  -0.0112  -0.0138   0.0144
 124 H   :1s     0.0074   0.0121  -0.0097  -0.0021   0.0008   0.0004   0.0004
 126 H   :1s    -0.0519  -0.0028   0.0085   0.0044  -0.0023   0.0007  -0.0003
 127 H   :1s    -0.0585  -0.0034   0.0136   0.0056  -0.0027   0.0014   0.0006
 128 H   :1s    -0.0064   0.0175   0.0485   0.0033   0.0088   0.0056  -0.0272
 129 H   :1s    -0.0251  -0.0033   0.0731   0.0115   0.0055   0.0028  -0.0676
 130 H   :1s    -0.0081  -0.0097  -0.0213  -0.0020   0.0051   0.0041  -0.0076
 131 H   :1s    -0.0072  -0.0002   0.0322   0.0011   0.0057   0.0058  -0.0160
 132 H   :1s     0.0098   0.0082   0.0506  -0.0021   0.0052  -0.0059   0.0293
 133 H   :1s     0.0407   0.0069   0.0693  -0.0054   0.0025  -0.0272   0.0823



 >>>> Total CPU  time used in SIRIUS :     75.70 seconds
 >>>> Total wall time used in SIRIUS :     77.99 seconds

 
     Date and time (Linux)  : Wed Dec 18 23:34:53 2013
     Host name              : gold                                    


                     .---------------------------------------.
                     | End of Wave Function Section (SIRIUS) |
                     `---------------------------------------'


     Order of analytical energy-derivatives available:   2
     This will be the default.

 Center of mass dipole origin  :    0.000000   -0.000000    0.000000

 Center of mass gauge origin   :    0.000000   -0.000000    0.000000


                 .------------------------------------------------.
                 | Starting in Static Property Section (ABACUS) - |
                 `------------------------------------------------'


 
     Date and time (Linux)  : Wed Dec 18 23:34:53 2013
     Host name              : gold                                    


   ***************************************************************************
   ************************ FINAL RESULTS from ABACUS ************************
   ***************************************************************************


 
     Date and time (Linux)  : Wed Dec 18 23:36:10 2013
     Host name              : gold                                    


                             Molecular geometry (au)
                             -----------------------

 C          4.2665263107           -0.6069938420            0.4889678577
 C          1.4737808630            3.6588889806           -0.8425910798
 C          5.4106733253            1.7748127338            0.4728445331
 C          4.0155917335            3.9042701198           -0.1988821875
 C         -6.5082781445            1.0432349636           -0.3792412316
 C          1.7075427918           -0.8919843627           -0.1598210306
 C          0.3243065981            1.2753574527           -0.7936344617
 O          1.8760373357           -5.3791558424            0.5002469999
 O         -3.2533146343            1.4720632123            2.7821466649
 O         -1.7179748138           -3.7304959580           -0.9024112466
 C          0.6911354953           -3.5075170905           -0.1308743322
 C         -3.8422147388            1.2572249077            0.5555747033
 O         -2.2160629754            1.1880326165           -1.5061048794
 H         -2.0398574459           -5.5497577623           -0.7585291289
 H          5.3917787591           -2.2501912756            1.0097398185
 H          0.3878563422            5.3207673728           -1.3666226328
 H          7.3924859122            1.9613962504            0.9833611715
 H          4.9075126937            5.7548525658           -0.2162812284
 H         -6.7539032240           -0.7346228297           -1.4011707707
 H         -7.8015939179            1.0551495902            1.2348480336
 H         -6.9561987920            2.6507490020           -1.5945509303





                        Molecular wave function and energy
                        ----------------------------------

     Spin multiplicity  1     State number       1     Total charge       0

     Total energy       -648.1373591093 au (Hartrees)
                        -17636.71469955 eV
                          -1701684.3740 kJ/mol


                             Relativistic corrections
                             ------------------------

     Darwin correction:                          1.3134488816 au
     Mass-velocity correction:                  -1.6506707728 au

     Total relativistic correction:             -0.3372218913 au (0.0520%)
     Non-relativistic + relativistic energy:  -648.4745810005 au




                             Molecular gradient (au)
                             -----------------------

 C         -0.0090106718           -0.0047443361           -0.0015663702
 C          0.0005199555            0.0004605369           -0.0008162250
 C         -0.0043464676            0.0066171793           -0.0023868136
 C         -0.0009843231           -0.0045688802            0.0008106898
 C          0.0056303846            0.0003847879           -0.0076138418
 C         -0.0023806164            0.0082903321           -0.0015045827
 C         -0.0228146937           -0.0126005599            0.0103100231
 O         -0.0228147339            0.0267551222           -0.0107131900
 O         -0.0143379238           -0.0003349562           -0.0005518279
 O          0.0233519320            0.0080891333            0.0050757079
 C         -0.0108088256           -0.0391003428            0.0013256461
 C          0.0395844402            0.0035896588            0.0032001414
 O         -0.0031939938           -0.0014216963           -0.0115183209
 H          0.0123801008            0.0042420867            0.0036221476
 H          0.0060498191           -0.0002774585            0.0017833947
 H          0.0019329385            0.0036651421           -0.0001030597
 H          0.0017343506            0.0007910912            0.0003957910
 H          0.0011664575            0.0008906248            0.0003468533
 H         -0.0006070570           -0.0018148514            0.0043912568
 H         -0.0019565915           -0.0007013702            0.0008511368
 H          0.0008743941            0.0018168420            0.0046539481





                                  Dipole moment
                                  -------------

                 au               Debye          C m (/(10**-30)
              0.948665           2.411267           8.043120


                             Dipole moment components
                             ------------------------

                 au               Debye          C m (/(10**-30)

      x     -0.16254666        -0.41315239        -1.37812801
      y      0.60706864         1.54301448         5.14694229
      z     -0.71064219        -1.80627217        -6.02507542


   Units:   1 a.u. =   2.54175 Debye 
            1 a.u. =   8.47835 (10**-30) C m (SI)



  Max    interatomic separation is    8.0557 Angstrom (   15.2232 Bohr)
  between atoms   20 and   17, "H     " and "H     ".

  Min HX interatomic separation is    0.9806 Angstrom (    1.8531 Bohr)

  Min YX interatomic separation is    1.2189 Angstrom (    2.3033 Bohr)


  Bond distances (Angstrom):
  --------------------------

                  atom 1     atom 2       distance
                  ------     ------       --------
  bond distance:  C          C            1.398304
  bond distance:  C          C            1.393594
  bond distance:  C          C            1.393260
  bond distance:  C          C            1.405117
  bond distance:  C          C            1.400562
  bond distance:  C          C            1.401314
  bond distance:  C          C            1.484994
  bond distance:  C          O            1.218871
  bond distance:  C          O            1.343819
  bond distance:  C          C            1.499316
  bond distance:  C          O            1.224057
  bond distance:  O          C            1.396939
  bond distance:  O          C            1.390003
  bond distance:  H          O            0.980625
  bond distance:  H          C            1.089321
  bond distance:  H          C            1.086513
  bond distance:  H          C            1.087459
  bond distance:  H          C            1.087132
  bond distance:  H          C            1.092908
  bond distance:  H          C            1.094526
  bond distance:  H          C            1.092429


  Bond angles (degrees):
  ----------------------

                  atom 1     atom 2     atom 3         angle
                  ------     ------     ------         -----
  bond angle:     C          C          C            120.833
  bond angle:     C          C          H            118.971
  bond angle:     C          C          H            120.195
  bond angle:     C          C          C            119.906
  bond angle:     C          C          H            119.831
  bond angle:     C          C          H            120.262
  bond angle:     C          C          C            120.076
  bond angle:     C          C          H            119.861
  bond angle:     C          C          H            120.063
  bond angle:     C          C          C            119.896
  bond angle:     C          C          H            120.060
  bond angle:     C          C          H            120.045
  bond angle:     C          C          H            109.888
  bond angle:     C          C          H            109.297
  bond angle:     C          C          H            109.852
  bond angle:     H          C          H            108.465
  bond angle:     H          C          H            110.684
  bond angle:     H          C          H            108.618
  bond angle:     C          C          C            118.297
  bond angle:     C          C          C            116.524
  bond angle:     C          C          C            125.177
  bond angle:     C          C          C            120.974
  bond angle:     C          C          O            116.279
  bond angle:     C          C          O            122.697
  bond angle:     C          O          H            103.144
  bond angle:     C          C          O            125.020
  bond angle:     C          C          O            114.981
  bond angle:     O          C          O            119.995
  bond angle:     C          C          O            124.345
  bond angle:     C          C          O            108.759
  bond angle:     O          C          O            126.895
  bond angle:     C          O          C            112.523




 CPU time statistics for ABACUS
 ------------------------------

 ONEINT     00:00:57      75 %
 TWOTEX     00:00:19      25 %

 TOTAL      00:01:17     100 %


 >>>> Total CPU  time used in ABACUS:  1 minute  17 seconds
 >>>> Total wall time used in ABACUS:  1 minute  17 seconds


                   .-------------------------------------------.
                   | End of Static Property Section (ABACUS) - |
                   `-------------------------------------------'



           :::::::::::::::::::::::::::::::::::::::::::::::::::::::::::
           ::::::::::::::: Optimization Control Center :::::::::::::::
           :::::::::::::::::::::::::::::::::::::::::::::::::::::::::::



                                Next geometry (au)
                                ------------------

 C          4.3462678548           -0.6044226998            0.3799059333
 C          1.5102942790            3.6984777582           -0.7290606255
 C          5.5055198872            1.7646650752            0.3793055932
 C          4.0822291940            3.9230477258           -0.1769348555
 C         -6.5956547416            1.0353518740           -0.4775619523
 C          1.7561795771           -0.8698207981           -0.1711902106
 C          0.3662992962            1.3206650637           -0.7401072475
 O          1.9842611424           -5.3655521987            0.4970951224
 O         -3.3910189339            1.3041670354            2.8111732088
 O         -1.7854196454           -3.7197543777           -0.6454580182
 C          0.7300182114           -3.4794444885           -0.0790814310
 C         -3.9606115555            1.1975668664            0.5656402132
 O         -2.2099294752            1.2450992232           -1.4149767326
 H         -2.1665395856           -5.5329338837           -0.4834759129
 H          5.4492070319           -2.2780948326            0.8224621796
 H          0.3893520154            5.3569901603           -1.1767455669
 H          7.5049693770            1.9234299510            0.8162157886
 H          4.9708847109            5.7722050248           -0.1828820160
 H         -6.7885268888           -0.6774404431           -1.6277831444
 H         -7.9472119577            0.9773114508            1.0844348677
 H         -6.9947403196            2.6745673185           -1.6739605514





                             Optimization information
                             ------------------------

 Iteration number               :       0
 End of optimization            :       F 
 Energy at this geometry is     :    -648.137359
 Norm of gradient               :       0.083830
 Norm of step                   :       0.499999
 Updated trust radius           :       0.500000
 Total Hessian index            :       0




 **************************************************************************************
 ****************** Output of molecule and basis set info suppressed ******************
 **************************************************************************************



                     .---------------------------------------.
                     | Starting in Integral Section (HERMIT) |
                     `---------------------------------------'



    *************************************************************************
    ****************** Output from HERMIT input processing ******************
    *************************************************************************


 Threshold for neglecting two-electron integrals:  1.00D-12
 Number of two-electron integrals written:    28815581 ( 72.6% )
 Megabytes written:                            329.952

 >>>  Time used in TWOINT     is   6.27 seconds
 >>>> Total CPU  time used in HERMIT:   6.44 seconds
 >>>> Total wall time used in HERMIT:   7.37 seconds


                        .----------------------------------.
                        | End of Integral Section (HERMIT) |
                        `----------------------------------'



                   .--------------------------------------------.
                   | Starting in Wave Function Section (SIRIUS) |
                   `--------------------------------------------'


 **********************************************************************
 *SIRIUS* a direct, restricted step, second order MCSCF program       *
 **********************************************************************

 (Wave function specification suppressed here, see output above for initial geometry.)


 >>>>> DIIS optimization of Hartree-Fock <<<<<

 C1-DIIS algorithm; max error vectors =    5

 Iter      Total energy        Error norm    Delta(E)  DIIS dim.
 -----------------------------------------------------------------------------
      K-S energy, electrons, error :    -69.337308292604  93.9999718536   -2.81D-05
@  1    -648.131316528        3.16474D-01    6.04D-03    1
      Virial theorem: -V/T =      2.004849
@      MULPOP C      -0.16; C      -0.10; C      -0.12; C      -0.12; C      -0.45; C       0.13; C       0.23; O      -0.40; O      -0.39; O      -0.54; 
@             C       0.40; C       0.50; O      -0.52; H       0.39; H       0.18; H       0.15; H       0.14; H       0.14; H       0.19; H       0.17; 
@             H       0.18; 
 -----------------------------------------------------------------------------
      K-S energy, electrons, error :    -69.315013087631  93.9999712343   -2.88D-05
@  2    -648.144463873        4.94694D-02   -1.31D-02    2
      Virial theorem: -V/T =      2.005217
@      MULPOP C      -0.16; C      -0.11; C      -0.12; C      -0.12; C      -0.46; C       0.11; C       0.24; O      -0.41; O      -0.40; O      -0.55; 
@             C       0.43; C       0.52; O      -0.53; H       0.39; H       0.18; H       0.15; H       0.14; H       0.14; H       0.19; H       0.17; 
@             H       0.18; 
 -----------------------------------------------------------------------------
      K-S energy, electrons, error :    -69.334880127855  93.9999712182   -2.88D-05
@  3    -648.144567063        4.85592D-02   -1.03D-04    3
      Virial theorem: -V/T =      2.004925
@      MULPOP C      -0.15; C      -0.09; C      -0.11; C      -0.12; C      -0.46; C       0.12; C       0.24; O      -0.41; O      -0.39; O      -0.56; 
@             C       0.41; C       0.51; O      -0.54; H       0.39; H       0.18; H       0.15; H       0.14; H       0.14; H       0.19; H       0.17; 
@             H       0.18; 
 -----------------------------------------------------------------------------
      K-S energy, electrons, error :    -69.325177381514  93.9999711690   -2.88D-05
@  4    -648.144691258        1.63990D-02   -1.24D-04    4
      Virial theorem: -V/T =      2.005071
@      MULPOP C      -0.16; C      -0.10; C      -0.12; C      -0.12; C      -0.46; C       0.12; C       0.24; O      -0.41; O      -0.40; O      -0.55; 
@             C       0.42; C       0.52; O      -0.53; H       0.39; H       0.18; H       0.15; H       0.14; H       0.14; H       0.19; H       0.17; 
@             H       0.18; 
 -----------------------------------------------------------------------------
      K-S energy, electrons, error :    -69.324577701436  93.9999711290   -2.89D-05
@  5    -648.144702455        8.12486D-03   -1.12D-05    5
      Virial theorem: -V/T =      2.005077
@      MULPOP C      -0.16; C      -0.10; C      -0.12; C      -0.12; C      -0.46; C       0.12; C       0.24; O      -0.41; O      -0.39; O      -0.55; 
@             C       0.42; C       0.52; O      -0.53; H       0.39; H       0.18; H       0.15; H       0.14; H       0.14; H       0.19; H       0.17; 
@             H       0.18; 
 -----------------------------------------------------------------------------
      K-S energy, electrons, error :    -69.325245896257  93.9999711523   -2.88D-05
@  6    -648.144705626        2.51410D-03   -3.17D-06    5
      Virial theorem: -V/T =      2.005068
@      MULPOP C      -0.16; C      -0.10; C      -0.12; C      -0.12; C      -0.46; C       0.12; C       0.24; O      -0.41; O      -0.40; O      -0.55; 
@             C       0.42; C       0.52; O      -0.53; H       0.39; H       0.18; H       0.15; H       0.14; H       0.14; H       0.19; H       0.17; 
@             H       0.18; 
 -----------------------------------------------------------------------------
      K-S energy, electrons, error :    -69.325060330939  93.9999711475   -2.89D-05
@  7    -648.144705969        6.24390D-04   -3.44D-07    5
      Virial theorem: -V/T =      2.005070
@      MULPOP C      -0.16; C      -0.10; C      -0.12; C      -0.12; C      -0.46; C       0.12; C       0.24; O      -0.41; O      -0.40; O      -0.55; 
@             C       0.42; C       0.52; O      -0.53; H       0.39; H       0.18; H       0.15; H       0.14; H       0.14; H       0.19; H       0.17; 
@             H       0.18; 
 -----------------------------------------------------------------------------
      K-S energy, electrons, error :    -69.325222959443  93.9999711470   -2.89D-05
@  8    -648.144705989        2.78661D-04   -1.95D-08    5
      Virial theorem: -V/T =      2.005068
@      MULPOP C      -0.16; C      -0.10; C      -0.12; C      -0.12; C      -0.46; C       0.12; C       0.24; O      -0.41; O      -0.40; O      -0.55; 
@             C       0.42; C       0.52; O      -0.53; H       0.39; H       0.18; H       0.15; H       0.14; H       0.14; H       0.19; H       0.17; 
@             H       0.18; 
 -----------------------------------------------------------------------------
      K-S energy, electrons, error :    -69.325178472911  93.9999711468   -2.89D-05
@  9    -648.144705993        1.43531D-04   -4.08D-09    5
      Virial theorem: -V/T =      2.005069
@      MULPOP C      -0.16; C      -0.10; C      -0.12; C      -0.12; C      -0.46; C       0.12; C       0.24; O      -0.41; O      -0.40; O      -0.55; 
@             C       0.42; C       0.52; O      -0.53; H       0.39; H       0.18; H       0.15; H       0.14; H       0.14; H       0.19; H       0.17; 
@             H       0.18; 
 -----------------------------------------------------------------------------
      K-S energy, electrons, error :    -69.325164941801  93.9999711468   -2.89D-05
@ 10    -648.144705994        5.36454D-05   -1.05D-09    5
      Virial theorem: -V/T =      2.005069
@      MULPOP C      -0.16; C      -0.10; C      -0.12; C      -0.12; C      -0.46; C       0.12; C       0.24; O      -0.41; O      -0.40; O      -0.55; 
@             C       0.42; C       0.52; O      -0.53; H       0.39; H       0.18; H       0.15; H       0.14; H       0.14; H       0.19; H       0.17; 
@             H       0.18; 
 -----------------------------------------------------------------------------
      K-S energy, electrons, error :    -69.325173710297  93.9999711468   -2.89D-05
@ 11    -648.144705994        2.73149D-05   -1.38D-10    5
      Virial theorem: -V/T =      2.005069
@      MULPOP C      -0.16; C      -0.10; C      -0.12; C      -0.12; C      -0.46; C       0.12; C       0.24; O      -0.41; O      -0.40; O      -0.55; 
@             C       0.42; C       0.52; O      -0.53; H       0.39; H       0.18; H       0.15; H       0.14; H       0.14; H       0.19; H       0.17; 
@             H       0.18; 
 -----------------------------------------------------------------------------
      K-S energy, electrons, error :    -69.325173023703  93.9999711468   -2.89D-05
@ 12    -648.144705994        9.35425D-06   -4.66D-11    5

@ *** DIIS converged in  12 iterations !
@     Converged SCF energy, gradient:   -648.144705993972    9.35D-06
    - total time used in SIRFCK :              0.00 seconds


 *** SCF orbital energy analysis ***

 Only the five lowest virtual orbital energies printed in each symmetry.

 Number of electrons :   94
 Orbital occupations :   47

 Sym       Kohn-Sham orbital energies

  1    -19.19917539   -19.19908554   -19.14836576   -19.14715259   -10.33719028
       -10.33280285   -10.27119526   -10.22299064   -10.21024528   -10.20746429
       -10.20559161   -10.20264246   -10.19403275    -1.12535051    -1.11548878
        -1.03842836    -1.02825763    -0.87943850    -0.78889939    -0.78117056
        -0.74645521    -0.67868040    -0.64427309    -0.60942449    -0.58697204
        -0.52910381    -0.50703867    -0.49426678    -0.48437158    -0.47230989
        -0.46893795    -0.45704074    -0.45257809    -0.44795334    -0.41253197
        -0.40585492    -0.40214409    -0.39081978    -0.37927756    -0.36715745
        -0.36267178    -0.32106273    -0.30890710    -0.28507159    -0.28062807
        -0.27119975    -0.26139577    -0.06008082    -0.01580899    -0.00537349
         0.04280397     0.06462678

    E(LUMO) :    -0.06008082 au (symmetry 1)
  - E(HOMO) :    -0.26139577 au (symmetry 1)
  ------------------------------------------
    gap     :     0.20131495 au

 >>> Writing SIRIFC interface file <<<

 >>>> CPU and wall time for SCF :      50.358      51.686


                       .-----------------------------------.
                       | >>> Final results from SIRIUS <<< |
                       `-----------------------------------'


@    Spin multiplicity:           1
@    Spatial symmetry:            1
@    Total charge of molecule:    0

@    Final DFT energy:           -648.144705993972                 
@    Nuclear repulsion:           777.860247553288
@    Electronic energy:         -1426.004953547260

[...]


 >>>> Total CPU  time used in SIRIUS :     25.12 seconds
 >>>> Total wall time used in SIRIUS :     25.24 seconds

 
     Date and time (Linux)  : Thu Dec 19 00:14:22 2013
     Host name              : gold                                    


                     .---------------------------------------.
                     | End of Wave Function Section (SIRIUS) |
                     `---------------------------------------'

 Trust radius set equal to norm of step.
 Updated trust radius   0.00277

     Order of analytical energy-derivatives available:   2
     This will be the default.

 Center of mass dipole origin  :   -0.013752    0.017585    0.074672

 Center of mass gauge origin   :   -0.013752    0.017585    0.074672


                 .------------------------------------------------.
                 | Starting in Static Property Section (ABACUS) - |
                 `------------------------------------------------'


 
     Date and time (Linux)  : Thu Dec 19 00:14:22 2013
     Host name              : gold                                    


   ***************************************************************************
   ************************ FINAL RESULTS from ABACUS ************************
   ***************************************************************************


 
     Date and time (Linux)  : Thu Dec 19 00:15:39 2013
     Host name              : gold                                    


 CPU time statistics for ABACUS
 ------------------------------

 ONEINT     00:00:56      75 %
 TWOTEX     00:00:18      25 %
 REST       00:00:01       1 %

 TOTAL      00:01:15     100 %


 >>>> Total CPU  time used in ABACUS:  1 minute  15 seconds
 >>>> Total wall time used in ABACUS:  1 minute  17 seconds


                   .-------------------------------------------.
                   | End of Static Property Section (ABACUS) - |
                   `-------------------------------------------'



           :::::::::::::::::::::::::::::::::::::::::::::::::::::::::::
           ::::::::::::::: Optimization Control Center :::::::::::::::
           :::::::::::::::::::::::::::::::::::::::::::::::::::::::::::



                               Final geometry (au)
                               -------------------

 C          4.3375231868           -0.5756758920            0.3736443206
 C          1.6254111402            3.8068470245           -0.7017147087
 C          5.5853870387            1.7399400120            0.2904106817
 C          4.2232362966            3.9426893593           -0.2593072699
 C         -6.6032143567            0.8815092407           -0.5361362611
 C          1.7190052504           -0.7628795305           -0.0846984280
 C          0.3824216308            1.4811617895           -0.6105112564
 O          1.8833144913           -5.2558840722            0.5810622283
 O         -3.5205918300            0.8181452043            2.9067933563
 O         -1.8721383686           -3.5449976408           -0.6141123454
 C          0.6519627645           -3.3446925761            0.0153359227
 C         -4.0452637477            1.0405788470            0.6627964800
 O         -2.2145757712            1.5227953395           -1.2036550069
 H         -2.3784431536           -5.3244115687           -0.4648456403
 H          5.3504543299           -2.3066734502            0.7883259591
 H          0.5253130367            5.4813191087           -1.1242543619
 H          7.6016835059            1.8297259334            0.6462530398
 H          5.1738565853            5.7580831785           -0.3342609894
 H         -6.6853761714           -0.8192712659           -1.7130042227
 H         -8.0516254129            0.7889560025            0.9265163701
 H         -6.9325109709            2.5088157616           -1.7676232258





                             Optimization information
                             ------------------------

 Iteration number               :      19
 End of optimization            :       T 
 Energy at this geometry is     :    -648.146521
 Energy change from last geom.  :      -0.000000
 Norm of gradient               :       0.000054
 Norm of step                   :       0.000779
 Updated trust radius           :       0.002770
 Total Hessian index            :       0



 Center of mass dipole origin  :   -0.013752    0.017585    0.074672

 Center of mass gauge origin   :   -0.013752    0.017585    0.074672


                 .------------------------------------------------.
                 | Starting in Static Property Section (ABACUS) - |
                 `------------------------------------------------'


 
     Date and time (Linux)  : Thu Dec 19 00:15:39 2013
     Host name              : gold                                    


   ***************************************************************************
   ************************ FINAL RESULTS from ABACUS ************************
   ***************************************************************************


 
     Date and time (Linux)  : Thu Dec 19 00:15:39 2013
     Host name              : gold                                    


                             Molecular geometry (au)
                             -----------------------

 C          4.3375231868           -0.5756758920            0.3736443206
 C          1.6254111402            3.8068470245           -0.7017147087
 C          5.5853870387            1.7399400120            0.2904106817
 C          4.2232362966            3.9426893593           -0.2593072699
 C         -6.6032143567            0.8815092407           -0.5361362611
 C          1.7190052504           -0.7628795305           -0.0846984280
 C          0.3824216308            1.4811617895           -0.6105112564
 O          1.8833144913           -5.2558840722            0.5810622283
 O         -3.5205918300            0.8181452043            2.9067933563
 O         -1.8721383686           -3.5449976408           -0.6141123454
 C          0.6519627645           -3.3446925761            0.0153359227
 C         -4.0452637477            1.0405788470            0.6627964800
 O         -2.2145757712            1.5227953395           -1.2036550069
 H         -2.3784431536           -5.3244115687           -0.4648456403
 H          5.3504543299           -2.3066734502            0.7883259591
 H          0.5253130367            5.4813191087           -1.1242543619
 H          7.6016835059            1.8297259334            0.6462530398
 H          5.1738565853            5.7580831785           -0.3342609894
 H         -6.6853761714           -0.8192712659           -1.7130042227
 H         -8.0516254129            0.7889560025            0.9265163701
 H         -6.9325109709            2.5088157616           -1.7676232258





                        Molecular wave function and energy
                        ----------------------------------

     Spin multiplicity  1     State number       1     Total charge       0

     Total energy       -648.1465208139 au (Hartrees)
                        -17636.96400222 eV
                          -1701708.4280 kJ/mol


                             Relativistic corrections
                             ------------------------

     Darwin correction:                          1.3133304339 au
     Mass-velocity correction:                  -1.6504447550 au

     Total relativistic correction:             -0.3371143211 au (0.0520%)
     Non-relativistic + relativistic energy:  -648.4836351349 au




                                  Dipole moment
                                  -------------

                 au               Debye          C m (/(10**-30)
              1.065407           2.707995           9.032899


                             Dipole moment components
                             ------------------------

                 au               Debye          C m (/(10**-30)

      x     -0.23914068        -0.60783493        -2.02751908
      y      0.67112991         1.70584197         5.69007633
      z     -0.79214204        -2.01342411        -6.71605990


   Units:   1 a.u. =   2.54175 Debye 
            1 a.u. =   8.47835 (10**-30) C m (SI)



  Max    interatomic separation is    8.3030 Angstrom (   15.6904 Bohr)
  between atoms   20 and   17, "H     " and "H     ".

  Min HX interatomic separation is    0.9822 Angstrom (    1.8561 Bohr)

  Min YX interatomic separation is    1.2252 Angstrom (    2.3152 Bohr)


  Bond distances (Angstrom):
  --------------------------

                  atom 1     atom 2       distance
                  ------     ------       --------
  bond distance:  C          C            1.392668
  bond distance:  C          C            1.396353
  bond distance:  C          C            1.401046
  bond distance:  C          C            1.410211
  bond distance:  C          C            1.396281
  bond distance:  C          C            1.409903
  bond distance:  C          C            1.479270
  bond distance:  C          O            1.239781
  bond distance:  C          O            1.380677
  bond distance:  C          C            1.497287
  bond distance:  C          O            1.225166
  bond distance:  O          C            1.409833
  bond distance:  O          C            1.406815
  bond distance:  H          O            0.982182
  bond distance:  H          C            1.083760
  bond distance:  H          C            1.083536
  bond distance:  H          C            1.084508
  bond distance:  H          C            1.085130
  bond distance:  H          C            1.095336
  bond distance:  H          C            1.090389
  bond distance:  H          C            1.093890


  Bond angles (degrees):
  ----------------------

                  atom 1     atom 2     atom 3         angle
                  ------     ------     ------         -----
  bond angle:     C          C          C            121.485
  bond angle:     C          C          H            121.035
  bond angle:     C          C          H            117.480
  bond angle:     C          C          C            120.223
  bond angle:     C          C          H            121.429
  bond angle:     C          C          H            118.349
  bond angle:     C          C          C            119.647
  bond angle:     C          C          H            119.970
  bond angle:     C          C          H            120.383
  bond angle:     C          C          C            119.900
  bond angle:     C          C          H            119.725
  bond angle:     C          C          H            120.374
  bond angle:     C          C          H            108.844
  bond angle:     C          C          H            109.708
  bond angle:     C          C          H            110.621
  bond angle:     H          C          H            109.803
  bond angle:     H          C          H            107.566
  bond angle:     H          C          H            110.259
  bond angle:     C          C          C            117.885
  bond angle:     C          C          C            115.708
  bond angle:     C          C          C            126.404
  bond angle:     C          C          C            120.855
  bond angle:     C          C          O            115.959
  bond angle:     C          C          O            123.100
  bond angle:     C          O          H            108.548
  bond angle:     C          C          O            124.156
  bond angle:     C          C          O            115.566
  bond angle:     O          C          O            120.271
  bond angle:     C          C          O            127.601
  bond angle:     C          C          O            109.588
  bond angle:     O          C          O            122.809
  bond angle:     C          O          C            120.804




 CPU time statistics for ABACUS
 ------------------------------




 >>>> Total CPU  time used in ABACUS:   0.27 seconds
 >>>> Total wall time used in ABACUS:   0.27 seconds


                   .-------------------------------------------.
                   | End of Static Property Section (ABACUS) - |
                   `-------------------------------------------'



          <<<<<<<<<<<<<<<<<<<<<<<<<<<<<<<<<<<<<<<<<<<<<<<<<<<<<<<<<<<<<<
          <<<<<<<<<<<<<<<<<<<<  End of Optimization <<<<<<<<<<<<<<<<<<<<
          <<<<<<<<<<<<<<<<<<<<<<<<<<<<<<<<<<<<<<<<<<<<<<<<<<<<<<<<<<<<<<



                                  Final geometry
                                  --------------

 C          4.3375231868           -0.5756758920            0.3736443206
 C          1.6254111402            3.8068470245           -0.7017147087
 C          5.5853870387            1.7399400120            0.2904106817
 C          4.2232362966            3.9426893593           -0.2593072699
 C         -6.6032143567            0.8815092407           -0.5361362611
 C          1.7190052504           -0.7628795305           -0.0846984280
 C          0.3824216308            1.4811617895           -0.6105112564
 O          1.8833144913           -5.2558840722            0.5810622283
 O         -3.5205918300            0.8181452043            2.9067933563
 O         -1.8721383686           -3.5449976408           -0.6141123454
 C          0.6519627645           -3.3446925761            0.0153359227
 C         -4.0452637477            1.0405788470            0.6627964800
 O         -2.2145757712            1.5227953395           -1.2036550069
 H         -2.3784431536           -5.3244115687           -0.4648456403
 H          5.3504543299           -2.3066734502            0.7883259591
 H          0.5253130367            5.4813191087           -1.1242543619
 H          7.6016835059            1.8297259334            0.6462530398
 H          5.1738565853            5.7580831785           -0.3342609894
 H         -6.6853761714           -0.8192712659           -1.7130042227
 H         -8.0516254129            0.7889560025            0.9265163701
 H         -6.9325109709            2.5088157616           -1.7676232258



@ Iter      Energy        Change       GradNorm  Index   StepLen    TrustRad #Rej
@ -------------------------------------------------------------------------------
@   0     -648.137359     0.000000     0.083830    0    0.499999*   0.500000   0 
@   1     -648.144706    -0.007347     0.026964    0    0.600010    0.599999   0 
@   2     -648.145625    -0.000919     0.023645    0    0.176461*   0.600010   1 
@   3     -648.146082    -0.000457     0.017357    0    0.176462    0.176461   0 
@   4     -648.146332    -0.000250     0.005876    0    0.162384*   0.176462   0 
@   5     -648.146419    -0.000087     0.004272    0    0.102628*   0.194861   0 
@   6     -648.146439    -0.000019     0.003280    0    0.093145*   0.102628   0 
@   7     -648.146456    -0.000017     0.003393    0    0.093142*   0.093145   0 
@   8     -648.146481    -0.000025     0.001905    0    0.054291*   0.111770   0 
@   9     -648.146496    -0.000015     0.001342    0    0.111766*   0.111770   0 
@  10     -648.146509    -0.000013     0.001485    0    0.122505*   0.134119   0 
@  11     -648.146515    -0.000006     0.001851    0    0.016840*   0.122505   0 
@  12     -648.146518    -0.000003     0.000724    0    0.018756*   0.122505   0 
@  13     -648.146519    -0.000001     0.000540    0    0.012092*   0.018756   0 
@  14     -648.146520    -0.000001     0.000393    0    0.018756    0.018756   0 
@  15     -648.146520    -0.000001     0.000367    0    0.023019*   0.027008   0 
@  16     -648.146521    -0.000000     0.000481    0    0.020292*   0.027623   0 
@  17     -648.146521    -0.000000     0.000328    0    0.005855*   0.020292   0 
@  18     -648.146521    -0.000000     0.000136    0    0.002770*   0.005855   0 
@  19     -648.146521    -0.000000     0.000054    0    0.000779*   0.002770   0 

@  *) Newton step taken.

  Max    interatomic separation is    8.3030 Angstrom (   15.6904 Bohr)
  between atoms   20 and   17, "H     " and "H     ".

  Min HX interatomic separation is    0.9822 Angstrom (    1.8561 Bohr)

  Min YX interatomic separation is    1.2252 Angstrom (    2.3152 Bohr)


  Bond distances (Angstrom):
  --------------------------

                  atom 1     atom 2       distance
                  ------     ------       --------
  bond distance:  C          C            1.392668
  bond distance:  C          C            1.396353
  bond distance:  C          C            1.401046
  bond distance:  C          C            1.410211
  bond distance:  C          C            1.396281
  bond distance:  C          C            1.409903
  bond distance:  C          C            1.479270
  bond distance:  C          O            1.239781
  bond distance:  C          O            1.380677
  bond distance:  C          C            1.497287
  bond distance:  C          O            1.225166
  bond distance:  O          C            1.409833
  bond distance:  O          C            1.406815
  bond distance:  H          O            0.982182
  bond distance:  H          C            1.083760
  bond distance:  H          C            1.083536
  bond distance:  H          C            1.084508
  bond distance:  H          C            1.085130
  bond distance:  H          C            1.095336
  bond distance:  H          C            1.090389
  bond distance:  H          C            1.093890


  Bond angles (degrees):
  ----------------------

                  atom 1     atom 2     atom 3         angle
                  ------     ------     ------         -----
  bond angle:     C          C          C            121.485
  bond angle:     C          C          H            121.035
  bond angle:     C          C          H            117.480
  bond angle:     C          C          C            120.223
  bond angle:     C          C          H            121.429
  bond angle:     C          C          H            118.349
  bond angle:     C          C          C            119.647
  bond angle:     C          C          H            119.970
  bond angle:     C          C          H            120.383
  bond angle:     C          C          C            119.900
  bond angle:     C          C          H            119.725
  bond angle:     C          C          H            120.374
  bond angle:     C          C          H            108.844
  bond angle:     C          C          H            109.708
  bond angle:     C          C          H            110.621
  bond angle:     H          C          H            109.803
  bond angle:     H          C          H            107.566
  bond angle:     H          C          H            110.259
  bond angle:     C          C          C            117.885
  bond angle:     C          C          C            115.708
  bond angle:     C          C          C            126.404
  bond angle:     C          C          C            120.855
  bond angle:     C          C          O            115.959
  bond angle:     C          C          O            123.100
  bond angle:     C          O          H            108.548
  bond angle:     C          C          O            124.156
  bond angle:     C          C          O            115.566
  bond angle:     O          C          O            120.271
  bond angle:     C          C          O            127.601
  bond angle:     C          C          O            109.588
  bond angle:     O          C          O            122.809
  bond angle:     C          O          C            120.804



@ Geometry converged in 20 iterations!

@ Energy at final geometry is       :    -648.146521 a.u.
@ Energy change during optimization :      -0.009162 a.u.
@                                            -24.054 kJ/mol
 
 >>>> Total CPU  time used in DALTON: 41 minutes 51 seconds
 >>>> Total wall time used in DALTON: 42 minutes 10 seconds

 
     Date and time (Linux)  : Thu Dec 19 00:15:39 2013
     Host name              : gold                                    
